51
Lattice="12.3 0.0 0.0 -6.15 10.652112466548596 0.0 0.0 -0.0 7.0" Properties=species:S:1:pos:R:3:tags:I:1:forces:R:3 stress="0.0011987369032330246 -1.6659493910633149e-18 -4.1216788958673652e-19 -1.6659493910633149e-18 0.0011987369032369485 -9.978131311924656e-15 -4.1216788958673652e-19 -9.978131311924656e-15 2.1144650760438815e-05" energy=-469.00131731180574 pbc="T T F"
C       -0.00276010       0.00159355       3.56199038       10      -0.00005396       0.00003115      -0.00008203
C        1.22362169       0.71270303       3.54669833       10      -0.00009574       0.00038537       0.00014980
C       -1.23034195       2.13022506       3.56731108       10      -0.00041266      -0.00023825       0.00040339
C       -0.00083539       2.84008101       3.54960065       10      -0.00051303      -0.00029620       0.00014688
C       -2.46000000       4.25765789       3.56199038       10      -0.00000000      -0.00006230      -0.00008203
C       -1.23097022       4.96418094       3.54669833       10       0.00028587      -0.00027560       0.00014980
C       -3.68228908       6.39134399       3.49887963       10      -0.00008873      -0.00033918       0.00024370
C       -2.46000000       7.07742472       3.45705741       10       0.00000000       0.00069301       0.00000009
C       -4.91607828       8.52832957       3.49887963       10      -0.00033811       0.00009275       0.00024370
C       -3.71077040       9.24382260       3.45705741       10       0.00060016      -0.00034650       0.00000009
C        2.45621080      -0.00671611       3.49887963       10      -0.00024937       0.00024644       0.00024370
C        3.69000000       0.70771900       3.46680095       10       0.00000000      -0.00028804       0.00000510
C        1.22947358       2.13095730       3.53565536       10      -0.00024188       0.00035903      -0.00011003
C        2.45879816       2.83883612       3.51374095       10       0.00007364       0.00015367      -0.00020780
C        0.00019995       4.26012169       3.53565536       10       0.00018998      -0.00038899      -0.00011003
C        1.22790327       4.97080859       3.51374095       10       0.00016990      -0.00001306      -0.00020780
C       -1.23771092       6.39134399       3.49887963       10       0.00008873      -0.00033918       0.00024370
C       -0.00209736       7.10261922       3.46680095       10      -0.00024945       0.00014402       0.00000510
C       -2.46000000       8.52168997       3.00425175       10      -0.00000000       0.00000000       0.00064731
C       -1.20922960       9.24382260       3.45705741       10      -0.00060016      -0.00034650       0.00000009
C        4.92378920      -0.00671611       3.49887963       10       0.00024937       0.00024644       0.00024370
C        6.15637831       0.71270303       3.54669833       10       0.00009574       0.00038537       0.00014980
C        3.69000000       2.12533983       3.49913466       10       0.00000000      -0.00023759      -0.00037486
C        4.92120184       2.83883612       3.51374095       10      -0.00007364       0.00015367      -0.00020780
C        2.45990072       4.26078766       3.51105934       10       0.00023636       0.00013646      -0.00059640
C        3.69000000       4.97098582       3.50605857       10      -0.00000000      -0.00000000      -0.00074974
C        1.22559829       6.39380881       3.49913466       10      -0.00020576       0.00011879      -0.00037486
C        2.45910512       7.10331274       3.51374095       10       0.00009626      -0.00014061      -0.00020780
C       -0.00392172       8.52832957       3.49887963       10       0.00033811       0.00009275       0.00024370
C        1.23540809       9.23607348       3.54669833       10       0.00038161      -0.00010977       0.00014980
C        7.38276010       0.00159355       3.56199038       10       0.00005396       0.00003115      -0.00008203
C        8.61256870       0.71162387       3.56892890       10       0.00004078       0.00002354       0.00052513
C        6.15052642       2.13095730       3.53565536       10       0.00024188       0.00035903      -0.00011003
C        7.38083539       2.84008101       3.54960065       10       0.00051303      -0.00029620       0.00014688
C        4.92009928       4.26078766       3.51105934       10      -0.00023636       0.00013646      -0.00059640
C        6.15209673       4.97080859       3.51374095       10      -0.00016990      -0.00001306      -0.00020780
C        3.69000000       6.39138212       3.51105934       10      -0.00000000      -0.00027292      -0.00059640
C        4.92089488       7.10331274       3.51374095       10      -0.00009626      -0.00014061      -0.00020780
C        2.46072637       8.52187846       3.53565536       10       0.00043187       0.00002996      -0.00011003
C        3.69000000       9.23279543       3.54960065       10       0.00000000       0.00059240       0.00014688
C        9.84000000       0.00039485       3.56731108       10      -0.00000000       0.00047650       0.00040339
C       11.06743130       0.71162387       3.56892890       10      -0.00004078       0.00002354       0.00052513
C        8.61034195       2.13022506       3.56731108       10       0.00041266      -0.00023825       0.00040339
C        9.84000000       2.83759725       3.56892890       10       0.00000000      -0.00004708       0.00052513
C        7.37980005       4.26012169       3.53565536       10      -0.00018998      -0.00038899      -0.00011003
C        8.61097022       4.96418094       3.54669833       10      -0.00028587      -0.00027560       0.00014980
C        6.15440171       6.39380881       3.49913466       10       0.00020576       0.00011879      -0.00037486
C        7.38209736       7.10261922       3.46680095       10       0.00024945       0.00014402       0.00000510
C        4.91927363       8.52187846       3.53565536       10      -0.00043187       0.00002996      -0.00011003
C        6.14459191       9.23607348       3.54669833       10      -0.00038161      -0.00010977       0.00014980
O       -2.46000000       8.52168997       1.67419398       11       0.00000000      -0.00000000      -0.00043353
