52
Lattice="12.3 0.0 0.0 -6.15 10.652112466548596 0.0 0.0 -0.0 7.0" Properties=species:S:1:pos:R:3:tags:I:1:forces:R:3 stress="0.001209414011455438 1.4660876492827837e-18 -7.16466580368071e-19 1.4660876492827837e-18 0.0012094163548579892 -2.4710872540717345e-09 -7.16466580368071e-19 -2.4710872540717345e-09 -1.524908404638796e-05" energy=-472.7156565124017 pbc="T T F"
C        0.00361325      -0.00090485       3.53848176       10       0.00014977       0.00009251      -0.00001028
C        1.23079982       0.70967913       3.54686999       10       0.00003835      -0.00002188      -0.00028534
C       -1.22164462       2.12559919       3.51411109       10      -0.00020441       0.00012048       0.00000288
C       -0.00329852       2.83707742       3.52174983       10       0.00010290       0.00007387      -0.00031050
C       -2.46000000       4.27049359       3.51410554       10      -0.00000000      -0.00023371      -0.00001715
C       -1.23466774       4.96987258       3.52174727       10       0.00011687       0.00005367      -0.00031976
C       -3.68897727       6.39484960       3.53848121       10       0.00015403       0.00008535      -0.00001229
C       -2.46000000       7.10233198       3.54686979       10      -0.00000000       0.00004472      -0.00028607
C       -4.91986886       8.52176580       3.53658882       10      -0.00006708      -0.00003833      -0.00009207
C       -3.68986116       9.23191103       3.54787848       10      -0.00015579      -0.00008972      -0.00010060
C        2.46141387      -0.00081627       3.54890350       10      -0.00003557       0.00002063       0.00003405
C        3.69000000       0.70998050       3.54787839       10      -0.00000000       0.00017985      -0.00010093
C        1.23259078       2.12774582       3.53848197       10      -0.00000333      -0.00017571      -0.00000953
C        2.45972386       2.84058875       3.52942184       10      -0.00007493      -0.00032380       0.00000179
C       -0.00193647       4.25972699       3.49562195       10       0.00028620       0.00016534       0.00013148
C        1.22735832       4.96946074       3.50729190       10       0.00011815       0.00006856       0.00014625
C       -1.23102273       6.39484960       3.53848121       10      -0.00015403       0.00008535      -0.00001229
C       -0.00011600       7.10115662       3.52942194       10      -0.00031773       0.00009764       0.00000213
C       -2.46000000       8.52332264       3.54890371       10       0.00000000      -0.00004083       0.00003483
C       -1.23013884       9.23191103       3.54787848       10       0.00015579      -0.00008972      -0.00010060
C        4.91858613      -0.00081627       3.54890350       10       0.00003557       0.00002063       0.00003405
C        6.14920018       0.70967913       3.54686999       10      -0.00003835      -0.00002188      -0.00028534
C        3.69000000       2.13027108       3.53658869       10      -0.00000000       0.00007755      -0.00009256
C        4.92027614       2.84058875       3.52942184       10       0.00007493      -0.00032380       0.00000179
C        2.45884623       4.25970863       3.51553834       10      -0.00011803      -0.00045203       0.00024165
C        3.69000000       4.97072042       3.51275048       10      -0.00000000      -0.00053428       0.00040712
C        1.22843900       6.39083664       3.51553824       10      -0.00045051       0.00012446       0.00024130
C        2.45977014       7.10154118       3.51275037       10      -0.00046277       0.00026777       0.00040672
C       -0.00013114       8.52176580       3.53658882       10       0.00006708      -0.00003833      -0.00009207
C        1.23016017       9.23205756       3.52942169       10      -0.00024268       0.00022798       0.00000124
C        7.37638675      -0.00090485       3.53848176       10      -0.00014977       0.00009251      -0.00001028
C        8.60863081       0.71474098       3.52174964       10       0.00001407      -0.00012389      -0.00031117
C        6.14740922       2.12774582       3.53848197       10       0.00000333      -0.00017571      -0.00000953
C        7.38329852       2.83707742       3.52174983       10      -0.00010290       0.00007387      -0.00031050
C        4.92115377       4.25970863       3.51553834       10       0.00011803      -0.00045203       0.00024165
C        6.15264168       4.96946074       3.50729190       10      -0.00011815       0.00006856       0.00014625
C        3.69000000       6.39126763       3.50967248       10      -0.00000000       0.00000053       0.00047960
C        4.92022986       7.10154118       3.51275037       10       0.00046277       0.00026777       0.00040672
C        2.45959278       8.52325772       3.51553807       10      -0.00033246       0.00032959       0.00024068
C        3.69000000       9.23488166       3.50729149       10       0.00000000      -0.00013462       0.00014477
C        9.84000000       0.00223690       3.49562190       10      -0.00000000      -0.00032741       0.00013133
C       11.07136919       0.71474098       3.52174964       10      -0.00001407      -0.00012389      -0.00031117
C        8.60164462       2.12559919       3.51411109       10       0.00020441       0.00012048       0.00000288
C        9.84000000       2.84056631       3.26975183       10      -0.00000000       0.00001077      -0.00096320
C        7.38193647       4.25972699       3.49562195       10      -0.00028620       0.00016534       0.00013148
C        8.61466774       4.96987258       3.52174727       10      -0.00011687       0.00005367      -0.00031976
C        6.15156100       6.39083664       3.51553824       10       0.00045051       0.00012446       0.00024130
C        7.38011600       7.10115662       3.52942194       10       0.00031773       0.00009764       0.00000213
C        4.92040722       8.52325772       3.51553807       10       0.00033246       0.00032959       0.00024068
C        6.14983983       9.23205756       3.52942169       10       0.00024268       0.00022798       0.00000124
O        9.84000000       2.84051448       1.44863437       11      -0.00000000      -0.00017586       0.00005161
H        9.84000000       2.84059894       0.47075555       12      -0.00000000       0.00012826       0.00021342
