131
Lattice="12.12 0.0 0.0 -6.06 10.496227893867395 0.0 0.0 0.0 40.0" Properties=species:S:1:pos:R:3:tags:I:1:forces:R:3 stress="0.002991896298007347 5.742914989593758e-06 7.75178119687719e-06 5.742914989593758e-06 0.0029972676585558276 -7.76020252452466e-06 7.75178119687719e-06 -7.76020252452466e-06 0.0024973337402203143" energy=-1205.6704861091127 pbc="T T F"
C       -0.00249316      -0.00405387      10.16629184        2      -0.00042818      -0.00013811      -0.00034473
Ti      -0.00382335       1.74464768       8.87696174        0      -0.00040822      -0.00040792      -0.00018915
Ti       1.51380053       0.86860551      11.46027949        0       0.00001130       0.00034655       0.00078083
O        0.00430526       1.75122597      12.39144658        3      -0.00020418       0.00004504      -0.00029745
O        1.51011291       0.86884510       7.93404341        1       0.00003530      -0.00012354       0.00043759
C       -1.51426571       2.62133126      10.17245711        2      -0.00044907      -0.00019135      -0.00049962
Ti      -1.51824033       4.36759519       8.87968460        0      -0.00031969      -0.00008212      -0.00015933
Ti       0.00293487       3.49626544      11.46361129        0      -0.00032474      -0.00015118       0.00056898
O       -1.50758398       4.37064893      12.39537059        3      -0.00009569       0.00005395      -0.00002773
O       -0.00946330       3.49082986       7.93148935        1      -0.00027231      -0.00011456       0.00057715
C       -3.03169262       5.24300976      10.16957016        2      -0.00020512      -0.00001954      -0.00060869
Ti      -3.03175375       6.99351082       8.87944173        0      -0.00014431       0.00013986      -0.00011057
Ti      -1.51767808       6.11993043      11.46444432        0       0.00009983       0.00023636       0.00070914
O       -3.03202732       6.99190120      12.39403068        3      -0.00021054       0.00029443       0.00030341
O       -1.51977005       6.11638217       7.93606408        1      -0.00019495      -0.00008192       0.00034032
C       -4.54636087       7.86795132      10.16403386        2      -0.00026051       0.00000912      -0.00058956
Ti      -4.54639451       9.61692614       8.87689860        0      -0.00011578       0.00003942      -0.00039768
Ti      -3.03260558       8.74286799      11.46032556        0      -0.00004453       0.00027588       0.00038418
O       -4.54864319       9.61845790      12.39090787        3      -0.00006661      -0.00004622       0.00001672
O       -3.03118031       8.74202116       7.93948585        1       0.00001680       0.00015242      -0.00013979
C        3.02828734      -0.00482319      10.16363649        2      -0.00017210       0.00002412      -0.00028521
Ti       3.02834163       1.73838345       8.85959401        0      -0.00014961      -0.00003441      -0.00008346
Ti       4.54091846       0.86907110      11.46407859        0      -0.00015765       0.00043547       0.00070811
O        3.02599682       1.75737118      12.38277499        3      -0.00006649       0.00022620      -0.00037099
O        4.54732384       0.86868177       7.93566094        1      -0.00042408      -0.00026149       0.00017176
C        1.51213565       2.62045718      10.15134879        2      -0.00034113      -0.00012548      -0.00026494
Ti       1.51279086       4.36894114       8.84867011        0      -0.00033773      -0.00040467      -0.00003775
Ti       3.02750176       3.47375484      11.37657032        0       0.00007152      -0.00051737       0.00074631
O        1.54152772       4.38446226      12.39790813        3      -0.00001400       0.00006829       0.00008027
O        3.02858870       3.48867901       7.91437988        1      -0.00035254      -0.00009395       0.00017221
C       -0.00173333       5.24254870      10.15329364        2      -0.00022531       0.00008590      -0.00041105
Ti      -0.00764532       6.99650400       8.86120557        0      -0.00003615      -0.00007708       0.00035059
Ti       1.49637311       6.12776495      11.37823783        0      -0.00040494       0.00025550       0.00078744
O        0.00903556       6.98648734      12.38363784        3      -0.00013806       0.00017037      -0.00039467
O        1.50774227       6.12191103       7.91500878        1      -0.00015258      -0.00048540       0.00014057
C       -1.51712066       7.86796020      10.16520436        2       0.00005807      -0.00006035      -0.00033977
Ti      -1.51722497       9.61696720       8.87920765        0      -0.00001950       0.00014313      -0.00030537
Ti      -0.00389377       8.74244839      11.46374017        0       0.00000531      -0.00034258       0.00075259
O       -1.51629035       9.61797438      12.39402610        3      -0.00000341       0.00013297       0.00004512
O       -0.00132819       8.74618306       7.93613863        1      -0.00021500      -0.00006683       0.00032657
C        6.05873941      -0.00409261      10.16969436        2       0.00027361      -0.00000586      -0.00051118
Ti       6.06021032       1.74440081       8.88012127        0       0.00023729      -0.00042951      -0.00046235
Ti       7.57299730       0.87017196      11.46983612        0       0.00007325       0.00010765       0.00057278
O        6.05158783       1.75116518      12.39458017        3      -0.00001136       0.00029966      -0.00051216
O        7.57647016       0.87236399       7.94279776        1       0.00029851       0.00009825       0.00035552
C        4.54399524       2.62012983      10.15312335        2       0.00014493       0.00004948      -0.00040999
Ti       4.54360390       4.36894702       8.84897999        0      -0.00031847      -0.00036623      -0.00028978
Ti       6.05304307       3.49733473      11.46397618        0      -0.00012874       0.00003818       0.00011163
O        4.51416147       4.38556225      12.39612902        3      -0.00043839       0.00017820      -0.00023230
O        6.06589108       3.48997754       7.93284771        1      -0.00023800       0.00005280       0.00006435
C        3.02798135       5.24380088      10.12487614        2      -0.00025412      -0.00019344      -0.00042083
Ti       3.02816754       6.99376287       8.84935295        0      -0.00031047      -0.00011407      -0.00001268
Ti       4.56048004       6.12870524      11.37719843        0       0.00007972      -0.00000449       0.00073510
O        3.02835406       6.95970331      12.39839821        3      -0.00009016      -0.00041464      -0.00039324
O        4.54843395       6.12134928       7.91483838        1      -0.00043358      -0.00044010      -0.00009998
C        1.51430199       7.86831434      10.15377706        2      -0.00037260       0.00006466      -0.00017424
Ti       1.51376147       9.61918772       8.88010928        0       0.00005609      -0.00003702      -0.00016034
Ti       3.02899318       8.73738950      11.46495535        0      -0.00007345       0.00006417       0.00033281
O        1.51595127       9.60834844      12.39567592        3       0.00012202      -0.00004101       0.00018467
O        3.02752590       8.75098981       7.93213560        1      -0.00011651      -0.00016455       0.00030575
C        9.08804491      -0.00749061      10.17310223        2      -0.00000533       0.00024273      -0.00051815
Ti       9.08808839       1.74507211       8.88421049        0       0.00000931       0.00002525      -0.00043470
Ti      10.60441414       0.86982296      11.46699661        0      -0.00027438      -0.00002228       0.00062913
O        9.08992571       1.74411954      12.39753591        3      -0.00011589      -0.00013875       0.00013432
O       10.59887328       0.87259033       7.94120501        1      -0.00047677       0.00016527       0.00054019
C        7.57074570       2.62100726      10.17409157        2       0.00016649      -0.00000049      -0.00066724
Ti       7.57476272       4.36757501       8.88009779        0      -0.00006489      -0.00007346      -0.00055278
Ti       9.08841892       3.49466053      11.46953693        0      -0.00020490       0.00016912       0.00061604
O        7.56492103       4.37142369      12.39433004        3      -0.00030153       0.00003505      -0.00040373
O        9.08788478       3.49038561       7.94257911        1      -0.00000626       0.00001778       0.00094414
C        6.05816994       5.24268235      10.15330818        2      -0.00007943      -0.00005796      -0.00072223
Ti       6.06408570       6.99638138       8.86028626        0      -0.00032978      -0.00011591      -0.00017591
Ti       7.57341053       6.12062755      11.46409512        0      -0.00021872       0.00032623       0.00050249
O        6.04647495       6.98809229      12.38261876        3      -0.00019012       0.00006581      -0.00067691
O        7.57650287       6.11581832       7.93595708        1       0.00001500       0.00006571      -0.00004036
C        4.54189272       7.86842597      10.15239226        2       0.00014150       0.00015095      -0.00036888
Ti       4.54260369       9.61920388       8.87785565        0      -0.00034320      -0.00018793      -0.00024786
Ti       6.06012252       8.74274001      11.46119793        0       0.00001416      -0.00033937       0.00057358
O        4.54122546       9.60916459      12.39317517        3      -0.00018537      -0.00007481       0.00007533
O        6.05774054       8.74574523       7.93452051        1      -0.00005217       0.00000102       0.00017812
C        0.04609377       0.06657188      16.38571607       10       0.00030014       0.00009692      -0.00008348
C        1.25829054       0.76576283      16.40825730       10       0.00042520       0.00024931      -0.00002744
C       -1.16604217       2.16590562      16.40221196       10       0.00040945       0.00010959       0.00009582
C        0.04531342       2.86497500      16.46370710       10       0.00041827       0.00011993      -0.00003244
C       -2.37794746       4.26494746      16.42995733       10       0.00033771       0.00013854       0.00015688
C       -1.16709602       4.96497768      16.47887465       10       0.00034888       0.00006941       0.00011748
C       -3.58914557       6.36426598      16.43203564       10       0.00003747      -0.00001652      -0.00043613
C       -2.37782268       7.06435576      16.43311955       10       0.00038099      -0.00005345      -0.00036797
C       -4.80131505       8.46352986      16.40664091       10       0.00000165       0.00003397      -0.00057331
C       -3.58929914       9.16299541      16.39094771       10       0.00039118       0.00012332      -0.00033982
C        2.47052898       0.06619813      16.40634053       10      -0.00003138       0.00027922      -0.00026290
C        3.68243265       0.76534918      16.44381584       10       0.00040542       0.00016169      -0.00001349
C        1.25769505       2.16468636      16.47027465       10       0.00002274       0.00004384       0.00003630
C        2.46955684       2.86240176      16.54292198       10       0.00037609       0.00000876       0.00010328
C        0.04394753       4.26412727      16.52080333       10       0.00012606      -0.00006887       0.00004660
C        1.25447875       4.96408162      16.59899106       10       0.00029771       0.00006053       0.00022198
C       -1.16679748       6.36476968      16.48424847       10       0.00031876      -0.00018463      -0.00018117
C        0.04424068       7.06544743      16.52834412       10       0.00031537       0.00011037      -0.00010310
C       -2.37749189       8.46343489      16.41556580       10       0.00015480      -0.00006712      -0.00038501
C       -1.16601842       9.16339028      16.43591772       10       0.00047490       0.00011883      -0.00003283
C        4.89462888       0.06623250      16.43653570       10       0.00001206       0.00024312       0.00042384
C        6.10639155       0.76571471      16.44205064       10       0.00021182       0.00016129       0.00052859
C        3.68261703       2.16394762      16.51077959       10       0.00006934       0.00020088       0.00027647
C        4.89557359       2.86379622      16.52688371       10       0.00025495      -0.00001566       0.00027458
C        2.46849735       4.26183321      16.61952464       10       0.00035395       0.00012213       0.00008014
C        3.68464779       4.96386744      16.63786276       10       0.00008592      -0.00008308      -0.00004308
C        1.25561190       6.36615625      16.59664976       10       0.00026493      -0.00007751       0.00013965
C        2.46947182       7.06778522      16.60222618       10       0.00026702      -0.00006318       0.00005783
C        0.04545058       8.46471099      16.48820495       10       0.00028846      -0.00015687       0.00027946
C        1.25764325       9.16475290      16.48592700       10       0.00031010      -0.00014228       0.00044682
C        7.31840364       0.06708959      16.43745775       10       0.00019139       0.00003998       0.00022412
C        8.53016594       0.76645010      16.40972132       10       0.00012721      -0.00014097       0.00017996
C        6.10727512       2.16487186      16.46588851       10       0.00009156       0.00025925       0.00019544
C        7.31901846       2.86523689      16.44287596       10       0.00001217       0.00007954       0.00011275
C        4.89757344       4.26333320      16.57654512       10       0.00022982       0.00008798       0.00009031
C        6.10857751       4.96477973      16.52615355       10       0.00025134      -0.00000705      -0.00008805
C        3.68455153       6.36785308      16.62229239       10       0.00029167       0.00005938       0.00004074
C        4.89688750       7.06653573      16.54783470       10       0.00021523      -0.00009576      -0.00028613
C        2.47014576       8.46635178      16.52860663       10       0.00026773       0.00012894      -0.00006810
C        3.68251472       9.16471796      16.47228893       10       0.00016086      -0.00028579      -0.00006198
C        9.74214573       0.06697055      16.40806175       10       0.00040635       0.00001308       0.00006523
C       10.95431011       0.76637110      16.38690709       10       0.00025583       0.00004617      -0.00008183
C        8.53039178       2.16586165      16.40233339       10       0.00027995       0.00017000       0.00023598
C        9.74227270       2.86577995      16.40433538       10       0.00025590       0.00003459       0.00013592
C        7.31964395       4.26484399      16.46282861       10       0.00007311       0.00019226       0.00007765
C        8.53095288       4.96513060      16.43616535       10       0.00008768      -0.00015729      -0.00006533
C        6.10818715       6.36515818      16.51132635       10       0.00012703       0.00007812      -0.00047165
C        7.31927883       7.06449185      16.44232030       10       0.00006423      -0.00018580      -0.00056928
C        4.89511689       8.46488697      16.47705200       10       0.00026404       0.00010407      -0.00023385
C        6.10676479       9.16359375      16.41095917       10       0.00006399      -0.00010661      -0.00024140
Na       3.03429886       5.23844264      13.94829696        0      -0.00068774      -0.00014155      -0.00050451
