138
Lattice="12.12 0.0 0.0 -6.06 10.496227893867395 0.0 0.0 0.0 40.0" Properties=species:S:1:pos:R:3:tags:I:1:forces:R:3 stress="0.0032192408809791693 9.629452579803562e-07 -2.4461289506271584e-06 9.629452579803562e-07 0.0032090496703836694 -1.8796938349362411e-07 -2.4461289506271584e-06 -1.8796938349362411e-07 0.0023360097297938512" energy=-1227.1845519909916 pbc="T T F"
C        0.00465835      -0.01785815      10.00331203        2       0.00007329       0.00012797      -0.00080298
Ti       0.00389411       1.73546381       8.71166963        0       0.00007585      -0.00016523      -0.00022743
Ti       1.52315679       0.83570063      11.23941624        0      -0.00010898       0.00004761       0.00021001
O        0.00481662       1.72729027      12.26337332        3       0.00001460      -0.00013122      -0.00028185
O        1.51500787       0.86131448       7.76517652        1       0.00001729      -0.00010244       0.00002134
C       -1.51001730       2.60683284      10.00672353        2       0.00000797       0.00000144      -0.00021759
Ti      -1.51544937       4.35623577       8.71479633        0      -0.00009660       0.00012487       0.00004913
Ti      -0.01428679       3.49451311      11.24975937        0      -0.00007319      -0.00006484       0.00051704
O       -1.53250048       4.36751930      12.27862160        3       0.00014763       0.00012377      -0.00013251
O        0.00440384       3.48415531       7.77682724        1       0.00000115      -0.00003880       0.00024379
C       -3.02801391       5.23443616      10.00303616        2      -0.00005672       0.00007113      -0.00027445
Ti      -3.02805429       6.97059500       8.69784282        0       0.00018318      -0.00020027       0.00011790
Ti      -1.50442001       6.11546528      11.25318794        0       0.00034575      -0.00016395       0.00009283
O       -3.02881503       6.98656667      12.30803185        3       0.00006774       0.00021227      -0.00020041
O       -1.50637571       6.10073338       7.76785030        1      -0.00009533      -0.00027047       0.00014923
C       -4.54642638       7.85164988       9.98732285        2       0.00008511      -0.00025591      -0.00017048
Ti      -4.54503502       9.60501660       8.68627702        0      -0.00000930       0.00036293      -0.00026344
Ti      -3.02835061       8.71759247      11.15942981        0       0.00001148       0.00026706       0.00006788
O       -4.52308363       9.58923364      12.26839192        3       0.00003073       0.00015947      -0.00018672
O       -3.02827433       8.72803739       7.75244444        1       0.00017031      -0.00008431       0.00002067
C        3.03175613      -0.01627075       9.98903635        2      -0.00013595      -0.00009467      -0.00015345
Ti       3.03184804       1.73324116       8.71251937        0      -0.00001748      -0.00022247      -0.00019248
Ti       4.54060866       0.83536367      11.23727956        0      -0.00000947      -0.00012733       0.00049812
O        3.03240981       1.73832963      12.33641923        3      -0.00034595       0.00009716       0.00006957
O        4.54846262       0.86126944       7.76448957        1       0.00002309      -0.00006313       0.00001667
C        1.51724009       2.60459446      10.01115049        2      -0.00045846       0.00018503       0.00037593
Ti       1.51809999       4.35402073       8.72009961        0      -0.00022788       0.00011295      -0.00010399
Ti       3.03234877       3.46688207      11.21477427        0      -0.00038525      -0.00014526       0.00028459
O        1.53118414       4.33092218      12.33362187        3      -0.00007298      -0.00022029      -0.00007746
O        3.03170406       3.48721192       7.77687665        1      -0.00018112       0.00026620       0.00011240
C        0.00454849       5.23168334      10.01762391        2      -0.00003847       0.00002658       0.00016041
Ti       0.00530726       6.97918999       8.70860290        0       0.00034955      -0.00003321      -0.00011989
Ti       1.50405921       6.10255055      11.23392420        0      -0.00017466       0.00078507       0.00056186
O        0.00140704       6.99296096      12.27256857        3      -0.00018942      -0.00007988      -0.00020960
O        1.52201938       6.10207556       7.77988620        1       0.00007044      -0.00020524       0.00017361
C       -1.50978890       7.85144897       9.98713338        2      -0.00028140      -0.00025204       0.00013293
Ti      -1.51129796       9.60499777       8.68525710        0       0.00024238       0.00029824       0.00008552
Ti      -0.02007684       8.74314807      11.21608555        0      -0.00023030       0.00011991       0.00084195
O       -1.53235095       9.58982097      12.26704993        3      -0.00015952       0.00005092      -0.00020194
O        0.00907204       8.72597505       7.76560654        1       0.00011223       0.00000761      -0.00019855
C        6.05935011      -0.01799278      10.00177302        2      -0.00002319      -0.00006728      -0.00027853
Ti       6.06014585       1.73538836       8.71080809        0      -0.00025235      -0.00006915       0.00007176
Ti       7.55887160       0.86125890      11.23962746        0      -0.00031185      -0.00020219       0.00023422
O        6.05888256       1.72644135      12.26075567        3      -0.00015083      -0.00009023      -0.00013698
O        7.57799822       0.85536335       7.77338332        1      -0.00014611      -0.00008639       0.00005536
C        4.54670110       2.60454004      10.01012941        2      -0.00008880       0.00021735       0.00020557
Ti       4.54576603       4.35401661       8.71937028        0       0.00019578      -0.00000482       0.00010470
Ti       6.07793452       3.49479848      11.24883429        0       0.00011160      -0.00018645       0.00024732
O        4.53391550       4.33012865      12.33366573        3      -0.00022488       0.00027552      -0.00007100
O        6.05955420       3.48430999       7.77603707        1      -0.00014948      -0.00010823       0.00005792
C        3.03192817       5.23061858      10.02433448        2      -0.00014282      -0.00001567      -0.00001072
Ti       3.03194655       6.97694538       8.72592834        0       0.00005410      -0.00007387      -0.00018416
Ti       4.56005983       6.10243110      11.23288912        0       0.00030681       0.00049301       0.00027941
O        3.03255219       6.98904178      12.36943676        3       0.00005661       0.00018916      -0.00020459
O        4.54179701       6.10224079       7.77956049        1      -0.00007840       0.00006581       0.00036667
C        1.51898705       7.85268403      10.01723002        2      -0.00009611       0.00005736       0.00005920
Ti       1.52138890       9.60250030       8.71579298        0      -0.00023343       0.00007956       0.00014065
Ti       3.03224562       8.72843967      11.23708661        0       0.00011011       0.00015685       0.00023292
O        1.53078881       9.60815496      12.32677368        3       0.00024423       0.00016113       0.00014659
O        3.03215987       8.72400752       7.77896690        1      -0.00004623       0.00009506      -0.00030495
C        9.09213167      -0.02281653      10.01111942        2      -0.00002492       0.00007561      -0.00005972
Ti       9.09204867       1.72729942       8.70915151        0      -0.00008280      -0.00056243       0.00018226
Ti      10.62570638       0.86153150      11.23985764        0       0.00012423      -0.00013599       0.00030922
O        9.09165556       1.72957307      12.25730386        3      -0.00014578       0.00022828      -0.00005234
O       10.60645393       0.85538316       7.77402731        1      -0.00013188       0.00013610      -0.00011796
C        7.57398855       2.60675564      10.00595249        2      -0.00000324      -0.00009618      -0.00022841
Ti       7.57942256       4.35620002       8.71418975        0      -0.00024372       0.00008668      -0.00006976
Ti       9.09167237       3.46437570      11.23728702        0      -0.00012768       0.00021506       0.00012706
O        7.59499615       4.36770364      12.27789307        3      -0.00024530       0.00027288      -0.00004842
O        9.09220839       3.47980250       7.77294021        1       0.00002472       0.00002403       0.00020204
C        6.05929529       5.23160429      10.01671905        2      -0.00005750       0.00039081       0.00002028
Ti       6.05859728       6.97934766       8.70861291        0      -0.00023297       0.00021893      -0.00009266
Ti       7.56795252       6.11557335      11.25215604        0      -0.00045296       0.00021283      -0.00009743
O        6.06201809       6.99308172      12.27107687        3       0.00012455      -0.00019113      -0.00048531
O        7.57031844       6.10088995       7.76761696        1       0.00024162      -0.00021898       0.00008064
C        4.54490792       7.85272201      10.01735824        2       0.00013178       0.00012297       0.00015947
Ti       4.54268695       9.60245885       8.71656152        0       0.00011773       0.00008996      -0.00018469
Ti       6.08363813       8.74325404      11.21933862        0      -0.00001846      -0.00045778       0.00020277
O        4.53382442       9.60677409      12.32784400        3      -0.00015179       0.00021735      -0.00024077
O        6.05482188       8.72628179       7.76622027        1      -0.00012828       0.00007099      -0.00058248
C        0.04977905       0.05486204      16.81855078       10       0.00010733      -0.00006105      -0.00005652
C        1.26149068       0.75322345      16.82208465       10       0.00011293      -0.00004783      -0.00003495
C       -1.16326909       2.15385519      16.80516872       10       0.00006654      -0.00007884      -0.00003138
C        0.04760789       2.85425434      16.80253804       10       0.00008392      -0.00005603       0.00004249
C       -2.37381225       4.25206634      16.80254267       10       0.00002872      -0.00007262      -0.00026120
C       -1.16221615       4.95262492      16.79882864       10       0.00011861      -0.00001851       0.00010993
C       -3.58659534       6.35284077      16.80563372       10      -0.00002733       0.00002681       0.00002463
C       -2.37395809       7.05126299      16.81554495       10      -0.00004637      -0.00002426       0.00019129
C       -4.79887054       8.45100240      16.81868771       10      -0.00005422       0.00015708      -0.00026157
C       -3.58685139       9.15115087      16.83804389       10       0.00010689       0.00003064      -0.00030747
C        2.47342611       0.05528090      16.83068055       10      -0.00000847      -0.00004604       0.00056724
C        3.68590420       0.75377527      16.81995884       10       0.00013656      -0.00014303       0.00008445
C        1.26071701       2.15321820      16.80880157       10       0.00001246      -0.00016734       0.00021126
C        2.47402748       2.85250207      16.78793257       10      -0.00008540      -0.00011862      -0.00029751
C        0.04882657       4.25311113      16.79093360       10       0.00000569      -0.00002804      -0.00001859
C        1.26025271       4.95214964      16.77323054       10       0.00001423       0.00008088      -0.00007845
C       -1.16269028       6.35156582      16.80919476       10       0.00010072      -0.00002026      -0.00040438
C        0.04851658       7.05136387      16.80999943       10       0.00015596      -0.00001408       0.00001951
C       -2.37319011       8.45085040      16.83635706       10      -0.00005224      -0.00006826       0.00032362
C       -1.16202329       9.15202166      16.83748468       10      -0.00006444      -0.00009584       0.00005342
C        4.89820301       0.05450455      16.83025285       10       0.00010896      -0.00010980      -0.00003156
C        6.11001121       0.75425950      16.82496023       10      -0.00003446       0.00010178      -0.00012676
C        3.68556162       2.15305572      16.80001814       10      -0.00002725      -0.00000669      -0.00020028
C        4.89893257       2.85375351      16.79761887       10       0.00008952      -0.00012221       0.00000361
C        2.47302107       4.25215172      16.76730707       10       0.00014655      -0.00009570       0.00006631
C        3.68722798       4.95205333      16.76818095       10       0.00014757      -0.00009959      -0.00013811
C        1.26091459       6.35149602      16.77981331       10       0.00016349       0.00007822       0.00029894
C        2.47377333       7.05208121      16.76959469       10       0.00020998      -0.00010361      -0.00009867
C        0.04862565       8.45182681      16.82777088       10       0.00012796       0.00007396       0.00005335
C        1.26153834       9.15287529      16.81520199       10       0.00017707      -0.00003172      -0.00059051
C        7.32103555       0.05583337      16.82135748       10      -0.00003372      -0.00003771       0.00009679
C        8.53294918       0.75609983      16.81299960       10       0.00017230      -0.00016801       0.00007633
C        6.11196126       2.15323752      16.80998533       10       0.00014168       0.00007299      -0.00027476
C        7.32251376       2.85398286      16.80250562       10       0.00024509      -0.00004586      -0.00003144
C        4.89993771       4.25341492      16.77887788       10       0.00006806      -0.00009593      -0.00053932
C        6.11099539       4.95262145      16.78711914       10       0.00013859      -0.00000407       0.00032952
C        3.68644940       6.35276267      16.76579354       10       0.00029361      -0.00019049      -0.00001097
C        4.89933421       7.05095704      16.78483000       10       0.00006960       0.00013194       0.00034857
C        2.47433634       8.45232982      16.78874167       10       0.00008196      -0.00004545      -0.00008541
C        3.68590281       9.15188328      16.79366807       10       0.00008998      -0.00002183       0.00025561
C        9.74680794       0.05550131      16.80805056       10       0.00001037      -0.00011253      -0.00031764
C       10.95897007       0.75532672      16.80762662       10       0.00000623      -0.00005116       0.00005470
C        8.53390158       2.15578066      16.80434185       10       0.00026602      -0.00018338       0.00028332
C        9.74574354       2.85323442      16.80005892       10       0.00019007      -0.00016290      -0.00008714
C        7.32127921       4.25221579      16.79506951       10       0.00016078      -0.00004556       0.00013762
C        8.53290104       4.95213005      16.80370803       10      -0.00008100       0.00009077       0.00025016
C        6.11149899       6.35119450      16.78934504       10      -0.00001486       0.00007918       0.00000538
C        7.32173300       7.05204582      16.80307034       10      -0.00002780       0.00008741       0.00015545
C        4.89839166       8.45216602      16.79914361       10       0.00017234       0.00011662      -0.00031202
C        6.11086069       9.15242339      16.81395395       10       0.00001104       0.00010140       0.00017173
Na      -3.02847470       8.99660340      13.96902442        0       0.00008909      -0.00037672      -0.00037755
Na       1.04379903       8.02074289      13.93857812        0       0.00062798       0.00014064       0.00017671
Na       5.01054706       8.00760465      13.94688999        0      -0.00059707      -0.00004469      -0.00036657
Na      -3.03238019       5.12821971      13.88776486        0       0.00051668      -0.00014594      -0.00007561
Na       3.03687439       5.24837639      13.85517655        0      -0.00040824       0.00008624       0.00025782
Na       1.24664972       2.46143792      13.92103433        0      -0.00049402       0.00007899       0.00032144
Na       4.81373957       2.44938653      13.91898248        0      -0.00047450       0.00011565      -0.00046646
Na       9.09742605       0.29197308      13.92189773        0       0.00042480      -0.00040276       0.00008829
