130
Lattice="12.12 0.0 0.0 -6.06 10.496227893867395 0.0 0.0 0.0 40.0" Properties=species:S:1:pos:R:3:tags:I:1:forces:R:3 energy=-1202.3451062192173 stress="0.0029126334268530017 8.810516508009627e-08 -4.504577512399396e-08 8.810516508009627e-08 0.0029124320745115024 -6.137977192969479e-08 -4.504577512399396e-08 -6.137977192969479e-08 0.002579272164530286" pbc="T T F"
C       -0.00001993      -0.00001102      10.20687765        2       0.00001306       0.00009215       0.00044487
Ti      -0.00004163       1.74931161      11.50507154        0      -0.00001589      -0.00021726       0.00018088
Ti       1.51507928       0.87470035       8.91860880        0       0.00004053       0.00014026      -0.00007472
O        0.00011142       1.74922024       7.98086991        1      -0.00005271       0.00006593      -0.00010552
O        1.51586641       0.87503964      12.43044247        3      -0.00017745      -0.00013846      -0.00000676
C       -1.51500942       2.62414703      10.20612376        2       0.00015695      -0.00023564       0.00009992
Ti      -1.51573562       4.37295027      11.50523115        0       0.00005107       0.00004607      -0.00039481
Ti       0.00002376       3.49884920       8.91849639        0      -0.00000958      -0.00026198      -0.00010410
O       -1.51439408       4.37350937       7.97998176        1       0.00002787       0.00010065       0.00020954
O       -0.00023862       3.49927671      12.43081466        3      -0.00004972      -0.00033041       0.00014363
C       -3.02992747       5.24817502      10.20485856        2       0.00023087      -0.00002518      -0.00031993
Ti      -3.03080708       6.99700993      11.50524299        0       0.00009933      -0.00001277      -0.00044255
Ti      -1.51505255       6.12278929       8.91794261        0       0.00023609       0.00002114       0.00027716
O       -3.02954375       6.99802038       7.97989744        1       0.00017025      -0.00007587       0.00033490
O       -1.51574202       6.12228167      12.43015919        3       0.00033339       0.00020590       0.00020697
C       -4.54489739       7.87213840      10.20590164        2       0.00008774       0.00025955       0.00002148
Ti      -4.54517698       9.62155929      11.50551666        0       0.00003826       0.00001556       0.00014875
Ti      -3.02992697       8.74685348       8.91861992        0      -0.00010584       0.00009364      -0.00005817
O       -4.54500404       9.62176946       7.98081024        1      -0.00005415      -0.00001704       0.00014097
O       -3.02989014       8.74630666      12.43114030        3      -0.00003352       0.00013234      -0.00005757
C        3.03012796      -0.00001414      10.20676525        2      -0.00023374      -0.00009500       0.00009323
Ti       3.03039929       1.74970666      11.50623017        0       0.00004446       0.00002868      -0.00031461
Ti       4.54495505       0.87471404       8.91786095        0       0.00018338       0.00010043       0.00006463
O        3.02946985       1.74897449       7.98030225        1      -0.00007952       0.00008174      -0.00001091
O        4.54623428       0.87608809      12.43055102        3       0.00008170      -0.00000099       0.00011783
C        1.51505910       2.62414816      10.20664527        2      -0.00026337      -0.00030531      -0.00013521
Ti       1.51557227       4.37283875      11.50580602        0      -0.00018017      -0.00008871      -0.00052452
Ti       3.03001312       3.49867043       8.91759329        0       0.00003503       0.00007103       0.00012693
O        1.51461028       4.37348574       7.98032227        1       0.00009000       0.00008912       0.00026017
O        3.03199909       3.49932847      12.43007308        3       0.00011219       0.00012199       0.00014829
C        0.00004325       5.24814334      10.20643729        2      -0.00002314      -0.00020167      -0.00031017
Ti      -0.00004689       6.99735752      11.50520219        0      -0.00003409       0.00014064       0.00037314
Ti       1.51507878       6.12275755       8.91823865        0      -0.00016559       0.00004053       0.00038831
O        0.00010716       6.99764347       7.98056672        1      -0.00003882      -0.00018879      -0.00030799
O        1.51563945       6.12223370      12.43056246        3      -0.00039780       0.00023785       0.00018166
C       -1.51497949       7.87220883      10.20656299        2       0.00000919       0.00009451      -0.00007370
Ti      -1.51529045       9.62227468      11.50613229        0      -0.00016078      -0.00005589      -0.00036440
Ti      -0.00001725       8.74696357       8.91845948        0       0.00006706      -0.00010218       0.00017476
O       -1.51507007       9.62122060       7.98052795        1       0.00013795       0.00006149       0.00012256
O       -0.00011637       8.74747510      12.43086230        3      -0.00002997      -0.00023176       0.00015926
C        6.05997460      -0.00006118      10.20592848        2       0.00000866      -0.00026187      -0.00021318
Ti       6.06002732       1.75038008      11.50384486        0       0.00002434      -0.00009962      -0.00007374
Ti       7.57497179       0.87470070       8.91747961        0      -0.00006358       0.00009830      -0.00024104
O        6.05987314       1.74860074       7.97912851        1      -0.00003244       0.00012518       0.00019558
O        7.57401059       0.87628671      12.43005115        3       0.00005982       0.00013502       0.00017806
C        4.54484421       2.62395373      10.20440734        2      -0.00002394      -0.00012613      -0.00010329
Ti       4.54589835       4.37304753      11.50326677        0       0.00006883       0.00001254      -0.00026986
Ti       6.05997163       3.49870173       8.91493531        0      -0.00000732      -0.00006562       0.00024290
O        4.54434969       4.37357870       7.97885841        1       0.00005483      -0.00012830       0.00038281
O        6.06003323       3.49877634      12.42658578        3      -0.00001215      -0.00027102       0.00039743
C        3.02995046       5.24813911      10.20549061        2      -0.00028672       0.00006344      -0.00070043
Ti       3.03091941       6.99701071      11.50570550        0      -0.00008701       0.00001583      -0.00049113
Ti       4.54499441       6.12279456       8.91686950        0       0.00000019      -0.00016356       0.00015106
O        3.02954714       6.99789149       7.98015742        1      -0.00009341      -0.00015735       0.00042585
O        4.54583322       6.12135397      12.42926950        3       0.00005865      -0.00006619       0.00007219
C        1.51503533       7.87219406      10.20676879        2      -0.00008199       0.00012775      -0.00012010
Ti       1.51515469       9.62243660      11.50602750        0      -0.00001104      -0.00001195      -0.00028930
Ti       3.02992117       8.74683022       8.91874361        0       0.00013400       0.00008203      -0.00016699
O        1.51504124       9.62109321       7.98044111        1      -0.00010769       0.00003793       0.00025017
O        3.02985343       8.74658333      12.43140079        3       0.00006084       0.00014845       0.00001314
C        9.08981372      -0.00006019      10.20645824        2      -0.00000456      -0.00010233       0.00023438
Ti       9.08954430       1.74990062      11.50524603        0      -0.00000975       0.00006449      -0.00023432
Ti      10.60494429       0.87467153       8.91839891        0      -0.00016123       0.00008742      -0.00009552
O        9.09049047       1.74887279       7.97987968        1       0.00024115      -0.00001952      -0.00011445
O       10.60368610       0.87509808      12.43002365        3       0.00011383      -0.00019877       0.00003070
C        7.57508286       2.62398920      10.20391161        2       0.00002171      -0.00007084       0.00015878
Ti       7.57424554       4.37310044      11.50255357        0      -0.00002882      -0.00000658      -0.00023156
Ti       9.09000634       3.49869443       8.91682509        0      -0.00007120      -0.00005481      -0.00005115
O        7.57543835       4.37359810       7.97854166        1      -0.00017259      -0.00013654       0.00019981
O        9.08827653       3.49927824      12.42896075        3      -0.00015174       0.00014331       0.00003223
C        6.05999438       5.24823610      10.20357400        2       0.00007057      -0.00013324      -0.00013393
Ti       6.06014386       6.99676234      11.50459535        0       0.00003255       0.00015461      -0.00055007
Ti       7.57498951       6.12285058       8.91648567        0      -0.00004028      -0.00024443       0.00023410
O        6.05989928       6.99821607       7.97951650        1      -0.00005973       0.00016830       0.00014336
O        7.57454755       6.12145040      12.42864283        3       0.00008044      -0.00011064      -0.00015203
C        4.54484782       7.87206804      10.20611360        2      -0.00014504       0.00027539      -0.00008694
Ti       4.54515734       9.62160755      11.50593488        0      -0.00002513       0.00003995       0.00009420
Ti       6.05998466       8.74684135       8.91825079        0      -0.00010706      -0.00001777       0.00012092
O        4.54499688       9.62163970       7.98077893        1       0.00007009       0.00003740       0.00013777
O        6.05981051       8.74528785      12.42977114        3      -0.00000837       0.00040019      -0.00009989
C        0.04499294       0.06753074      16.39041487       10      -0.00002631       0.00000829      -0.00002701
C        1.25693979       0.76726325      16.39160981       10      -0.00018744      -0.00035572      -0.00044464
C       -1.16699931       2.16677900      16.39309726       10       0.00030491      -0.00005296      -0.00025717
C        0.04502061       2.86662876      16.40020914       10       0.00039249      -0.00047925      -0.00021733
C       -2.37882988       4.26607622      16.39339233       10      -0.00004659       0.00012098      -0.00001214
C       -1.16694744       4.96583815      16.41452389       10      -0.00018825      -0.00049632      -0.00015456
C       -3.59084898       6.36541748      16.39286786       10      -0.00048645       0.00058036      -0.00010648
C       -2.37895368       7.06511642      16.41558556       10      -0.00010221      -0.00039167      -0.00017307
C       -4.80302909       8.46458126      16.39300893       10       0.00032758       0.00048841       0.00021080
C       -3.59097026       9.16433311      16.40260945       10       0.00044045      -0.00006419      -0.00027880
C        2.46897451       0.06759379      16.39764422       10       0.00023291       0.00004107      -0.00007381
C        3.68085813       0.76718394      16.39569323       10       0.00017858      -0.00010789       0.00015833
C        1.25700548       2.16677196      16.39543453       10       0.00028714       0.00021405      -0.00020961
C        2.46880541       2.86647358      16.39264073       10       0.00016020      -0.00018188      -0.00004523
C        0.04502585       4.26608887      16.41428137       10      -0.00013981       0.00023043      -0.00026137
C        1.25701656       4.96582119      16.41906918       10      -0.00015249      -0.00005092      -0.00017075
C       -1.16697284       6.36532687      16.42488753       10      -0.00000559      -0.00005915       0.00002758
C        0.04501121       7.06502304      16.43617428       10      -0.00011726      -0.00014511       0.00007422
C       -2.37899957       8.46459054      16.41703724       10       0.00028719      -0.00020867       0.00004201
C       -1.16696220       9.16428848      16.42357310       10       0.00016751       0.00003880      -0.00010507
C        4.89295215       0.06748226      16.40587398       10       0.00013022      -0.00011758      -0.00011007
C        6.10499069       0.76715733      16.39438736       10       0.00006545       0.00013036       0.00021460
C        3.68092473       2.16674451      16.38469167       10       0.00003524       0.00011413      -0.00001880
C        4.89281203       2.86638081      16.36919612       10       0.00020942      -0.00012224       0.00010459
C        2.46890401       4.26604504      16.40061125       10      -0.00015701       0.00016738       0.00013114
C        3.68086019       4.96583313      16.38815138       10       0.00025839      -0.00013161       0.00012516
C        1.25702356       6.36530284      16.42911196       10      -0.00012825       0.00017705      -0.00016441
C        2.46902998       7.06507236      16.42204403       10       0.00002597      -0.00006283       0.00007180
C        0.04501255       8.46452054      16.43208513       10      -0.00005094      -0.00003027      -0.00011046
C        1.25700921       9.16427089      16.42545782       10      -0.00012880       0.00022359      -0.00000828
C        7.31706617       0.06745348      16.40572708       10      -0.00019717       0.00002839       0.00016412
C        8.52914511       0.76715259      16.39425049       10      -0.00022587       0.00029776       0.00008346
C        6.10492131       2.16664403      16.37164817       10       0.00008360       0.00016276       0.00014001
C        7.31702874       2.86639148      16.36515220       10       0.00009127       0.00014864       0.00010550
C        4.89286907       4.26598387      16.36770544       10       0.00013109       0.00001947       0.00023510
C        6.10495890       4.96582677      16.36170368       10       0.00028064      -0.00012350       0.00034874
C        3.68094365       6.36539440      16.39993691       10      -0.00021355       0.00015290       0.00013547
C        4.89297077       7.06522925      16.38935018       10      -0.00015630      -0.00018463       0.00019439
C        2.46907840       8.46457551      16.42123541       10      -0.00023067       0.00012495      -0.00005524
C        3.68104509       9.16431303      16.40614633       10      -0.00014243      -0.00000679      -0.00009580
C        9.74106768       0.06756851      16.39827699       10      -0.00050889       0.00002756      -0.00007335
C       10.95307387       0.76724867      16.39125858       10      -0.00027304      -0.00047759      -0.00017853
C        8.52900639       2.16672299      16.37997235       10       0.00008468       0.00036386       0.00017137
C        9.74118776       2.86647237      16.38706327       10       0.00056787      -0.00052451       0.00006304
C        7.31709950       4.26602480      16.36315408       10       0.00014275       0.00044626       0.00007694
C        8.52919958       4.96586839      16.38027570       10       0.00008110      -0.00010900       0.00030838
C        6.10499385       6.36531061      16.37576484       10      -0.00041123       0.00047757       0.00003208
C        7.31707199       7.06525477      16.38524251       10      -0.00024106       0.00005340       0.00015780
C        4.89305795       8.46456894      16.39600220       10       0.00008350       0.00030259       0.00022584
C        6.10499103       9.16437767      16.39064740       10       0.00001922      -0.00008345      -0.00034114
