130
Lattice="12.12 0.0 0.0 -6.06 10.496227893867395 0.0 0.0 0.0 40.0" Properties=species:S:1:pos:R:3:tags:I:1:forces:R:3 stress="0.0029126863315962273 -3.415533813658875e-07 7.988319277225928e-08 -3.415533813658875e-07 0.002913139613220138 6.1714293601063255e-09 7.988319277225928e-08 6.1714293601063255e-09 0.002581865211919391" energy=-1202.3449807865782 pbc="T T F"
C        0.00036120       0.00043652      10.20434492        2       0.00005762       0.00001857       0.00047088
Ti       0.00036800       1.74996536       8.91678147        0       0.00008589       0.00001938       0.00057920
Ti       1.51468500       0.87491456      11.50381879        0      -0.00008675      -0.00009346      -0.00037785
O        0.00047448       1.74961812      12.42862888        3      -0.00011245       0.00063637      -0.00002455
O        1.51574382       0.87534403       7.97981610        1       0.00016095       0.00014946       0.00055693
C       -1.51464477       2.62472970      10.20641589        2      -0.00015024       0.00008235      -0.00008774
Ti      -1.51461095       4.37393075       8.91999405        0       0.00014021       0.00010963      -0.00027362
Ti       0.00049811       3.49845498      11.50661712        0      -0.00006918      -0.00003072      -0.00037827
O       -1.51386615       4.37304855      12.43286905        3      -0.00001487       0.00005143       0.00009554
O        0.00025157       3.50011501       7.98105077        1       0.00001995       0.00029341       0.00030324
C       -3.02943987       5.24866803      10.20844577        2       0.00007256       0.00010909      -0.00003127
Ti      -3.02959953       6.99794492       8.92004410        0       0.00008900       0.00005600      -0.00053198
Ti      -1.51496650       6.12305870      11.50772330        0      -0.00008639      -0.00007503       0.00002026
O       -3.02999333       6.99916029      12.43265947        3       0.00000146       0.00012015       0.00014757
O       -1.51452152       6.12336454       7.98222437        1       0.00001572      -0.00007050       0.00003667
C       -4.54452491       7.87251370      10.20659241        2       0.00015908      -0.00014994       0.00011074
Ti      -4.54456250       9.62197338       8.91691548        0      -0.00006679       0.00006727       0.00037732
Ti      -3.03029733       8.74794340      11.50646794        0       0.00005822      -0.00003654      -0.00032203
O       -4.54487243       9.62237412      12.42873225        3       0.00025558      -0.00060368      -0.00014862
O       -3.02899052       8.74674072       7.98103115        1       0.00018284      -0.00011127       0.00022382
C        3.03050221       0.00041544      10.20591956        2       0.00015853      -0.00017546      -0.00003621
Ti       3.03038381       1.74987968       8.91840613        0       0.00022238       0.00016859      -0.00009788
Ti       4.54463479       0.87537702      11.50648537        0       0.00003761      -0.00007287      -0.00034644
O        3.02820077       1.74858658      12.43046773        3      -0.00021397      -0.00020384       0.00015345
O        4.54591793       0.87516148       7.98128884        1       0.00004808       0.00013353       0.00010379
C        1.51536780       2.62471648      10.20597594        2       0.00000381       0.00006663      -0.00031871
Ti       1.51531965       4.37392556       8.91954494        0      -0.00006826       0.00004894      -0.00012826
Ti       3.03012233       3.49846750      11.50678803        0      -0.00019687      -0.00011448      -0.00037864
O        1.51505039       4.37308812      12.43243287        3       0.00011136       0.00014706       0.00011382
O        3.03065270       3.49976492       7.98143592        1       0.00001719       0.00006772       0.00001607
C        0.00038699       5.24870884      10.20807583        2      -0.00001945       0.00041604       0.00006129
Ti       0.00037276       6.99795465       8.91994542        0      -0.00000163      -0.00004290       0.00016325
Ti       1.51579858       6.12298907      11.50737761        0       0.00006816       0.00011812      -0.00003356
O        0.00059021       6.99824831      12.43263271        3      -0.00008463      -0.00006387       0.00028638
O        1.51521908       6.12345824       7.98198972        1       0.00014876      -0.00010437       0.00030168
C       -1.51455542       7.87264611      10.20796325        2       0.00031612      -0.00022771       0.00031957
Ti      -1.51463546       9.62197384       8.91933746        0      -0.00011999      -0.00018703      -0.00013728
Ti       0.00037776       8.74787866      11.50709207        0       0.00011240       0.00004240       0.00009921
O       -1.51540447       9.62229129      12.43216808        3       0.00021006       0.00004095      -0.00007523
O        0.00043469       8.74705953       7.98183395        1       0.00003438       0.00011485       0.00034212
C        6.06040497       0.00034876      10.20766094        2       0.00001777      -0.00027159      -0.00002562
Ti       6.06040730       1.74967697       8.91936237        0      -0.00011269       0.00018740       0.00029189
Ti       7.57585069       0.87544198      11.50705550        0      -0.00000426      -0.00001930      -0.00031822
O        6.06001856       1.74909844      12.43058664        3      -0.00009641      -0.00013688       0.00014433
O        7.57503095       0.87523182       7.98152945        1      -0.00003691       0.00009942       0.00017219
C        4.54521596       2.62444004      10.20736664        2       0.00029828       0.00018130      -0.00049997
Ti       4.54523713       4.37400424       8.91953221        0      -0.00003033      -0.00007553       0.00053405
Ti       6.06030554       3.49911506      11.50504917        0       0.00005113       0.00000659       0.00010542
O        4.54446359       4.37364673      12.43096195        3      -0.00006977      -0.00010263       0.00007248
O        6.06051428       3.49937714       7.98206623        1      -0.00007048      -0.00009670      -0.00018512
C        3.03023621       5.24866700      10.20798477        2      -0.00011938       0.00023312      -0.00035911
Ti       3.03038235       6.99797915       8.91977093        0      -0.00004268       0.00000972      -0.00020310
Ti       4.54575736       6.12337816      11.50755768        0      -0.00000686       0.00009016      -0.00020749
O        3.03082427       6.99897398      12.43241519        3       0.00006460       0.00009021       0.00019059
O        4.54527120       6.12293749       7.98180710        1      -0.00001724      -0.00001837       0.00015999
C        1.51542965       7.87269057      10.20789196        2      -0.00040050      -0.00027297       0.00003774
Ti       1.51542261       9.62201531       8.91947624        0       0.00001309      -0.00021516       0.00004772
Ti       3.03127965       8.74792777      11.50643567        0       0.00016243       0.00009669      -0.00049511
O        1.51635853       9.62211510      12.43223342        3      -0.00003565       0.00000288      -0.00005077
O        3.02978902       8.74690559       7.98104778        1      -0.00017065      -0.00014573       0.00017943
C        9.09027574       0.00046989      10.20633295        2      -0.00013476      -0.00005738      -0.00018371
Ti       9.09039403       1.74990552       8.91903799        0      -0.00023039       0.00021215       0.00000599
Ti      10.60614655       0.87506619      11.50424913        0      -0.00014626      -0.00004942      -0.00041291
O        9.09239776       1.74858686      12.43139277        3       0.00012442      -0.00003111       0.00000345
O       10.60485044       0.87539112       7.98004978        1      -0.00018814       0.00017316       0.00050614
C        7.57554425       2.62443495      10.20781474        2      -0.00025595       0.00023910      -0.00019242
Ti       7.57556037       4.37399061       8.91985109        0       0.00005122       0.00006208       0.00045634
Ti       9.09057432       3.49863801      11.50770255        0       0.00012676      -0.00013404      -0.00030237
O        7.57591332       4.37387511      12.43137160        3       0.00015484      -0.00003656      -0.00001865
O        9.09009482       3.49972454       7.98191226        1       0.00014397      -0.00003612      -0.00015656
C        6.06036900       5.24870720      10.20803091        2       0.00006737      -0.00022310      -0.00015189
Ti       6.06040949       6.99792969       8.91934323        0      -0.00000238      -0.00028069      -0.00021803
Ti       7.57499173       6.12349794      11.50776965        0       0.00005241       0.00012010      -0.00006974
O        6.06027877       6.99998820      12.43168951        3       0.00004519       0.00021259       0.00010928
O        7.57560037       6.12282508       7.98202315        1      -0.00003604       0.00011685      -0.00002881
C        4.54531452       7.87253584      10.20658653        2      -0.00005188      -0.00015213      -0.00019867
Ti       4.54536942       9.62202181       8.91712379        0       0.00029759       0.00007042       0.00037457
Ti       6.06053299       8.74798028      11.50443610        0       0.00002687      -0.00012116      -0.00042108
O        4.54593036       9.62243085      12.42892832        3      -0.00009591      -0.00029174      -0.00005221
O        6.06033761       8.74666212       7.98019341        1      -0.00001536      -0.00033328       0.00022648
C        0.04437244       0.06677323      16.35929542       10      -0.00012578      -0.00013979       0.00027552
C        1.25649586       0.76659526      16.36447453       10      -0.00026690      -0.00013479       0.00011012
C       -1.16774569       2.16623583      16.37721605       10       0.00028626      -0.00014237       0.00029850
C        0.04431598       2.86598413      16.38513588       10       0.00031009      -0.00021655      -0.00000817
C       -2.37966201       4.26534754      16.40431946       10       0.00020222       0.00002983       0.00003991
C       -1.16762634       4.96507538      16.41711007       10      -0.00023097      -0.00034055       0.00006691
C       -3.59154835       6.36443199      16.40546264       10      -0.00024499       0.00049536       0.00003572
C       -2.37957640       7.06422051      16.41810659       10      -0.00026856      -0.00025906      -0.00001653
C       -4.80352558       8.46356707      16.37969209       10       0.00025955       0.00039392       0.00004216
C       -3.59147083       9.16334322      16.38690449       10       0.00031544      -0.00002188       0.00007971
C        2.46858438       0.06667376      16.37527947       10       0.00008782      -0.00001187       0.00010484
C        3.68046278       0.76649870      16.38575018       10      -0.00000422      -0.00003512       0.00008261
C        1.25638804       2.16625601      16.37421614       10       0.00015428       0.00004297       0.00015076
C        2.46840027       2.86581540      16.38530065       10      -0.00009428       0.00002871       0.00024883
C        0.04435593       4.26534778      16.40903933       10      -0.00019193       0.00023524       0.00012421
C        1.25640037       4.96504163      16.41546110       10      -0.00017018       0.00016916       0.00014263
C       -1.16752773       6.36456185      16.42881314       10       0.00019361      -0.00001719       0.00013039
C        0.04440109       7.06430487      16.43269689       10      -0.00004155      -0.00006869      -0.00021840
C       -2.37957787       8.46365980      16.41054038       10       0.00032986      -0.00019334       0.00005630
C       -1.16761380       9.16351357      16.41604650       10       0.00000972       0.00010742       0.00004026
C        4.89245431       0.06678824      16.40171072       10       0.00003410      -0.00026256       0.00020211
C        6.10438785       0.76642020      16.39930696       10      -0.00001913       0.00017398      -0.00027488
C        3.68055171       2.16611219      16.38342184       10      -0.00011548      -0.00008631      -0.00013036
C        4.89239927       2.86580583      16.38614871       10       0.00001145      -0.00011127      -0.00018528
C        2.46843215       4.26533550      16.40129946       10      -0.00018641      -0.00004803       0.00002681
C        3.68030591       4.96506477      16.39971953       10       0.00001448       0.00002398      -0.00006418
C        1.25633733       6.36451374      16.42829124       10      -0.00013297       0.00021805       0.00005571
C        2.46835754       7.06419858      16.41762367       10       0.00011499       0.00003676      -0.00001709
C        0.04435959       8.46378700      16.42861379       10      -0.00000315      -0.00008665      -0.00011393
C        1.25634127       9.16349678      16.41719676       10      -0.00000847       0.00022827       0.00020111
C        7.31631062       0.06675285      16.40370470       10      -0.00007890      -0.00015534      -0.00010215
C        8.52829525       0.76643279      16.38941870       10      -0.00020419       0.00025667       0.00009170
C        6.10442041       2.16591228      16.38845744       10       0.00001719      -0.00004697       0.00001556
C        7.31642679       2.86577121      16.38822830       10      -0.00016855       0.00014711      -0.00010956
C        4.89232696       4.26539131      16.38884941       10       0.00009959      -0.00017357      -0.00024163
C        6.10439795       4.96510195      16.38884485       10       0.00013606      -0.00012705      -0.00000651
C        3.68033416       6.36445518      16.40446117       10      -0.00011915      -0.00008234       0.00005172
C        4.89230701       7.06422094      16.39095839       10      -0.00024557      -0.00012528      -0.00005309
C        2.46825935       8.46363775      16.41183826       10      -0.00018516       0.00009851      -0.00009779
C        3.68013471       9.16333498      16.38880073       10      -0.00000244      -0.00001198      -0.00013632
C        9.74019944       0.06665771      16.37900974       10      -0.00041293      -0.00001225       0.00020827
C       10.95228116       0.76657291      16.36694048       10      -0.00015806      -0.00034251      -0.00017278
C        8.52822652       2.16603833      16.38728210       10       0.00023625       0.00022400      -0.00030577
C        9.74029562       2.86581118      16.38936103       10       0.00035013      -0.00043053       0.00000784
C        7.31644898       4.26533379      16.39056857       10       0.00029000       0.00037779      -0.00044579
C        8.52845864       4.96504856      16.40212995       10      -0.00012444       0.00004058      -0.00003039
C        6.10436534       6.36441738      16.38876115       10      -0.00031064       0.00028957      -0.00033498
C        7.31641458       7.06417827      16.39124920       10      -0.00034524       0.00010328      -0.00000286
C        4.89220762       8.46362704      16.38047381       10       0.00012000       0.00013850       0.00015669
C        6.10434481       9.16343948      16.36851430       10       0.00006365       0.00000750       0.00000035
