133
Lattice="12.12 0.0 0.0 -6.06 10.496227893867395 0.0 0.0 0.0 40.0" Properties=species:S:1:pos:R:3:forces:R:3 energy=-1188.069091796875 free_energy=-1188.069091796875 stress="-0.00066286203218624 4.958945282851346e-06 3.732191657945805e-07 4.958945282851346e-06 -0.0006549711688421667 -4.780514473168296e-08 3.732191657945805e-07 -4.780514473168296e-08 -2.359853823463709e-08" pbc="T T F"
C       -0.10964105      -0.17466843      10.52235988       0.00019011      -0.00013021      -0.00018955
Ti      -0.11331656       1.56998964       9.20015396      -0.00028297      -0.00018296      -0.00016440
Ti       1.40796869       0.70029336      11.83732565      -0.00011555      -0.00033151       0.00003036
O       -0.10120091       1.57746083      12.76378099       0.00008618       0.00027502      -0.00023282
O        1.40368144       0.69857202       8.27853373      -0.00003669       0.00029372       0.00030053
C       -1.61883038       2.45078740      10.52663326      -0.00026303      -0.00027998       0.00003584
Ti      -1.62905192       4.19637665       9.19789059      -0.00025522       0.00008783      -0.00025302
Ti      -0.09283113       3.33056541      11.83217672       0.00015749      -0.00024126       0.00006478
O       -1.61669470       4.20138173      12.75869192       0.00022886      -0.00053671      -0.00007164
O       -0.11426919       3.31934433       8.27280602      -0.00023226      -0.00005697       0.00009716
C       -3.13792636       5.07111384      10.52034030       0.00015798       0.00000870      -0.00012479
Ti      -3.13802292       6.82382395       9.20577251       0.00001519       0.00060199      -0.00014596
Ti      -1.62167809       5.94920840      11.83435714      -0.00010105      -0.00037586       0.00008591
O       -3.13792512       6.82244221      12.75968530       0.00013202      -0.00049297      -0.00004601
O       -1.62433975       5.94563613       8.27664493       0.00011767      -0.00007275      -0.00005651
C       -4.65339483       7.69614354      10.51677006       0.00028038      -0.00006372       0.00013019
Ti      -4.65094575       9.44473497       9.20508922       0.00033194      -0.00020812      -0.00008713
Ti      -3.13775703       8.57132395      11.83724488       0.00006286      -0.00002130       0.00003903
O       -4.65260803       9.44645822      12.75988578       0.00001167      -0.00021535      -0.00009555
O       -3.13828049       8.57146552       8.27859960       0.00010394       0.00026454       0.00044751
C        2.92186100      -0.17461106      10.51660599       0.00015205      -0.00001719       0.00014251
Ti       2.92191881       1.56856816       9.18909597       0.00000773       0.00034204      -0.00022304
Ti       4.43448761       0.69983666      11.83305348       0.00025975      -0.00019383       0.00015606
O        2.92167842       1.58771300      12.74948707       0.00004433       0.00025851       0.00027305
O        4.43928922       0.69910627       8.27703758       0.00011801       0.00031166       0.00015235
C        1.40374448       2.45061413      10.51211095      -0.00002269       0.00015528       0.00008013
Ti       1.40127525       4.19498772       9.17721889       0.00019921       0.00018813      -0.00036940
Ti       2.92180765       3.31966981      11.75667377      -0.00006348      -0.00015967       0.00036448
O        1.43930128       4.21707864      12.80030088      -0.00022059       0.00014447       0.00039750
O        2.92164996       3.32251561       8.26143322       0.00002397       0.00026141      -0.00018924
C       -0.10746165       5.06928962      10.51048959      -0.00000977       0.00004897      -0.00011050
Ti      -0.11238920       6.82488274       9.18836812       0.00022298       0.00006879       0.00000629
Ti       1.40397398       5.94954575      11.75723783       0.00036975      -0.00016379       0.00037965
O       -0.09614858       6.81532058      12.74963275       0.00004025       0.00009094       0.00016862
O        1.40679560       5.94806864       8.26130875      -0.00021181      -0.00001827      -0.00016421
C       -1.62201701       7.69660687      10.51679951      -0.00007311      -0.00009343       0.00010725
Ti      -1.62471726       9.44545054       9.20597804      -0.00044859      -0.00018059      -0.00010827
Ti      -0.10772588       8.56999242      11.83449907       0.00026798      -0.00014890      -0.00000642
O       -1.62288859       9.44650173      12.75999798       0.00027214      -0.00002671      -0.00002313
O       -0.10663560       8.57407115       8.27697765      -0.00003715       0.00005541       0.00021929
C        5.95398588      -0.17461068      10.52067980      -0.00011519      -0.00020301      -0.00004365
Ti       5.95712155       1.56982927       9.19816588       0.00032175       0.00026838       0.00004263
Ti       7.46450092       0.69839562      11.84215350      -0.00011983      -0.00005602       0.00038123
O        5.94533809       1.57828484      12.75868117       0.00010680       0.00049345      -0.00009000
O        7.47268631       0.70200788       8.27856826       0.00029090       0.00010863       0.00028127
C        4.43910732       2.45113672      10.51086583       0.00003733       0.00014809       0.00009938
Ti       4.44217737       4.19521389       9.17694719       0.00009468       0.00015226      -0.00039127
Ti       5.93581471       3.33320832      11.83146669       0.00014441      -0.00022071       0.00014493
O        4.40267546       4.21764066      12.80116764       0.00013863       0.00011880       0.00041068
O        5.95806408       3.32010394       8.27291571       0.00011635      -0.00017069      -0.00010383
C        2.92203923       5.07321745      10.50156076       0.00007601       0.00006725       0.00046083
Ti       2.92183196       6.82891603       9.17800469       0.00009559       0.00023760      -0.00037237
Ti       4.44045986       5.95008243      11.75808834      -0.00015340       0.00008837       0.00006455
O        2.92110253       6.78376747      12.80165551      -0.00006329      -0.00033586      -0.00037986
O        4.43758585       5.94874231       8.26199314       0.00016967      -0.00003172      -0.00010771
C        1.41061374       7.69847517      10.51162075       0.00003778       0.00004723      -0.00017225
Ti       1.40574998       9.45231091       9.19882605       0.00041955       0.00011705      -0.00037144
Ti       2.92484132       8.55514916      11.83424495       0.00006689       0.00005769       0.00001159
O        1.40784583       9.43944224      12.76022464       0.00027090      -0.00001921      -0.00025004
O        2.92285071       8.57916047       8.27395087      -0.00009682      -0.00011315      -0.00018609
C        8.98318093      -0.18017314      10.52789030       0.00005203       0.00002512      -0.00006163
Ti       8.98236975       1.57391224       9.21703142       0.00014946      -0.00014540      -0.00094801
Ti      10.49945600       0.69773357      11.83609986       0.00029342      -0.00019934       0.00034904
O        8.98149709       1.57478157      12.76328086       0.00004679      -0.00024135      -0.00014228
O       10.49249072       0.70180937       8.27882395      -0.00019340       0.00001233       0.00017953
C        7.46315958       2.45101707      10.52596036       0.00039755      -0.00014169      -0.00002225
Ti       7.47312760       4.19596914       9.19885286       0.00007574      -0.00007118       0.00001501
Ti       8.98126800       3.32660819      11.84228806      -0.00004278      -0.00008965       0.00051397
O        7.45997993       4.20207582      12.75892782      -0.00043944      -0.00066748      -0.00002348
O        8.98214591       3.31719658       8.27839119       0.00003220      -0.00002668       0.00019783
C        5.95086445       5.07018796      10.51164457      -0.00002025      -0.00014912      -0.00005408
Ti       5.95656077       6.82495976       9.18969309      -0.00002711       0.00023508      -0.00030777
Ti       7.46499758       5.95019389      11.83383530       0.00006584      -0.00024458       0.00006905
O        5.94039409       6.81687844      12.75154940      -0.00011228      -0.00008561       0.00006574
O        7.46807114       5.94596990       8.27740046       0.00005247      -0.00015425       0.00008851
C        4.43352789       7.69869072      10.51317494      -0.00005539       0.00015217      -0.00014649
Ti       4.43874283       9.45293065       9.20136473      -0.00016826       0.00022145      -0.00026250
Ti       5.95235524       8.56965662      11.83470746       0.00005885      -0.00023687       0.00043649
O        4.43891345       9.43838711      12.76718930      -0.00002491      -0.00001256      -0.00010538
O        5.95092955       8.57421491       8.27830495       0.00002289       0.00025921       0.00020558
C        0.22575249       0.34852047      18.76460837      -0.00043443       0.00062914       0.00002515
C        1.43320914       1.02906044      18.87848211      -0.00011453       0.00027319      -0.00005064
C       -0.98466715       2.43376092      18.99851763       0.00005491       0.00021768       0.00002650
C        0.22573078       3.12705542      19.06900235       0.00010772      -0.00015819       0.00034925
C       -2.19775386       4.52881771      19.07303571       0.00017383      -0.00000738      -0.00055487
C       -0.98633642       5.22834107      19.12322244       0.00032508      -0.00017776       0.00032301
C       -3.40526113       6.62785802      18.99624012       0.00005664       0.00037796       0.00005879
C       -2.19790952       7.32807125      19.04108970       0.00020601       0.00022922       0.00038765
C       -4.60396013       8.71679024      18.78256611      -0.00041290      -0.00011463      -0.00019494
C       -3.41070973       9.42355146      18.86869947      -0.00031839      -0.00024084      -0.00002645
C        2.65410731       0.33311893      18.86844940      -0.00021393      -0.00030968       0.00042564
C        3.85904160       1.02851252      18.97035330       0.00011475      -0.00031953       0.00066593
C        1.43473527       2.43082604      19.02667402       0.00002087       0.00017644      -0.00012946
C        2.64887803       3.12703168      19.07951741      -0.00004366       0.00014474      -0.00029838
C        0.22556278       4.52795915      19.14272356       0.00005102      -0.00038468      -0.00010755
C        1.43802123       5.22826966      19.16255908      -0.00040338      -0.00003652       0.00007320
C       -0.98544138       6.62773474      19.11551219       0.00021728      -0.00006098       0.00018034
C        0.22601006       7.32850578      19.12725488      -0.00012846       0.00033592       0.00046289
C       -2.19530175       8.72376158      18.99053272       0.00003709       0.00018397      -0.00010591
C       -0.98641340       9.42658094      19.02482474       0.00004852      -0.00002385      -0.00021369
C        5.07330141       0.32853521      19.00149801       0.00033488      -0.00023634      -0.00006433
C        6.28571289       1.02962918      19.01426050       0.00026253      -0.00017304      -0.00012494
C        3.86010788       2.42937552      19.03739895       0.00013707       0.00004782      -0.00067099
C        5.07375830       3.12913924      19.04964927       0.00009017       0.00037444       0.00006936
C        2.65018399       4.52821823      19.13317970      -0.00044530       0.00010254      -0.00025917
C        3.86352961       5.23038503      19.09077318      -0.00055044       0.00013182      -0.00007178
C        1.43829951       6.62870424      19.15034192      -0.00032859       0.00002129       0.00008404
C        2.65182518       7.32949504      19.08465058      -0.00006133      -0.00005737       0.00043581
C        0.22615938       8.72741971      19.07503482      -0.00009512       0.00030481      -0.00042394
C        1.43814600       9.42751642      19.03457662      -0.00019453       0.00004634      -0.00028773
C        7.49799246       0.32846303      18.99707299       0.00010455      -0.00010976       0.00007366
C        8.71101449       1.02946828      18.95004292      -0.00000510      -0.00006295       0.00005296
C        6.28632168       2.42951966      19.02066092      -0.00000243      -0.00004925       0.00007427
C        7.49830392       3.12984797      19.01846375      -0.00002989       0.00014661      -0.00013891
C        5.07348144       4.53058820      19.04972586      -0.00053763       0.00041929      -0.00067615
C        6.28644817       5.23239811      18.98915439      -0.00046773       0.00020529       0.00015267
C        3.85989120       6.63052859      19.04538834       0.00003358      -0.00000786       0.00009470
C        5.07315833       7.33303618      18.89923395       0.00019406      -0.00015573       0.00018972
C        2.64740813       8.72444706      19.01149203      -0.00024206      -0.00006227      -0.00025957
C        3.86327578       9.42257366      18.87093308      -0.00010724      -0.00010042       0.00009730
C        9.91631814       0.33348676      18.85124079      -0.00016900      -0.00005818       0.00023805
C       11.13827521       1.03129881      18.86190243      -0.00023070       0.00034544       0.00023197
C        8.71177329       2.43052229      18.99632740       0.00006100      -0.00007266      -0.00026659
C        9.92196405       3.12894828      19.02930746       0.00016454      -0.00009403      -0.00011152
C        7.49963951       4.53038500      19.01206096      -0.00032244       0.00024505      -0.00024248
C        8.71056005       5.22939470      19.03094103       0.00000625       0.00016005      -0.00029320
C        6.28629248       6.62356141      18.88818633      -0.00009438      -0.00012439      -0.00013690
C        7.50098419       7.33066714      18.87841514      -0.00025453      -0.00008357       0.00041246
C        5.05829180       8.71833628      18.77619318      -0.00014067      -0.00015495       0.00024023
C        6.28855847       9.42345778      18.34737909      -0.00022505       0.00012911      -0.00023937
O        6.37483667       9.36587101      16.85990612       0.00026441      -0.00013790      -0.00047779
H        5.59740238       9.81171113      16.47442271       0.00000602       0.00009584       0.00073692
Na       2.91092124       5.07375819      14.36295269       0.00001624      -0.00020978      -0.00022668
