132
Lattice="12.12 0.0 0.0 -6.06 10.496227893867395 0.0 0.0 0.0 40.0" Properties=species:S:1:pos:R:3:tags:I:1:forces:R:3 energy=-1209.5313577565273 stress="0.0030278883056613377 -1.0609850930574162e-05 -9.382471128375491e-06 -1.0609850930574162e-05 0.0030154434633549634 5.606966021155303e-06 -9.382471128375491e-06 5.606966021155303e-06 0.0024473442105665895" pbc="T T F"
C       -0.33726458       0.22658758      10.15789084        2       0.00026207       0.00008935      -0.00035254
Ti      -0.33811800       1.97501364      11.45405121        0      -0.00017910       0.00030526       0.00041914
Ti       1.18016449       1.09870633       8.87189554        0       0.00012576       0.00019357      -0.00016047
O       -0.33298561       1.97190495       7.92578607        1      -0.00026987       0.00006711       0.00012950
O        1.17830008       1.11168359      12.39081817        3      -0.00023042      -0.00009163       0.00018636
C       -1.85082754       2.84633660      10.15291089        2       0.00012971       0.00031606      -0.00000096
Ti      -1.85106290       4.59210933      11.45130832        0       0.00012879      -0.00020801      -0.00006427
Ti      -0.34090505       3.72056011       8.85207275        0       0.00032649       0.00033728      -0.00007528
O       -1.85379736       4.60417124       7.92879813        1      -0.00005700       0.00005564      -0.00002993
O       -0.32372606       3.72709839      12.37804777        3      -0.00008799       0.00008054      -0.00005641
C       -3.36782274       5.47342634      10.16338671        2      -0.00004391      -0.00000223       0.00009885
Ti      -3.36421110       7.22262550      11.47586325        0      -0.00022495       0.00010744      -0.00012808
Ti      -1.85216019       6.34913795       8.87633966        0       0.00007140       0.00015350       0.00010585
O       -3.36435525       7.22835992       7.93926494        1       0.00002349       0.00045271       0.00009173
O       -1.84173557       6.32464067      12.36007089        3      -0.00014717       0.00020430      -0.00004039
C       -4.88498257       8.09498773      10.16898026        2       0.00026328       0.00024472      -0.00011787
Ti      -4.88520625       9.84991701      11.45824427        0      -0.00014568      -0.00011656       0.00002109
Ti      -3.36612129       8.97282416       8.88276402        0      -0.00007808      -0.00026663       0.00023976
O       -4.87409712       9.84339046       7.93654176        1       0.00024790      -0.00002651       0.00014656
O       -3.38322284       8.98276704      12.36717211        3      -0.00009584      -0.00040886       0.00000027
C        2.69468569       0.23083787      10.16896262        2      -0.00007192       0.00012838      -0.00048400
Ti       2.69322211       1.98136799      11.46017847        0      -0.00018350      -0.00032201       0.00016691
Ti       4.20898506       1.09812915       8.87621767        0      -0.00016016       0.00029411      -0.00013934
O        2.69571397       1.96641731       7.92666955        1      -0.00008179       0.00048688       0.00019996
O        4.20714799       1.11488891      12.39009587        3      -0.00007294      -0.00009149       0.00014790
C        1.18064336       2.84896608      10.14613048        2       0.00016956       0.00005125      -0.00013139
Ti       1.16209339       4.58809733      11.37110232        0      -0.00049149       0.00026070       0.00004558
Ti       2.69488416       3.72373164       8.84397311        0       0.00022658       0.00042056       0.00006717
O        1.17529132       4.59635282       7.90812566        1       0.00028959       0.00003604       0.00014029
O        2.69420759       3.75924766      12.39580123        3       0.00001128       0.00018263       0.00048108
C       -0.33347904       5.47400435      10.14633470        2       0.00003088      -0.00006089      -0.00011696
Ti      -0.33050840       7.22029020      11.46938017        0      -0.00025570      -0.00031239       0.00005433
Ti       1.17902318       6.34858504       8.84338545        0       0.00025642       0.00005313       0.00001362
O       -0.34481121       7.22841989       7.92801275        1       0.00003265       0.00012734      -0.00019719
O        1.21267940       6.32924616      12.39083750        3       0.00007961       0.00010369       0.00024673
C       -1.84814277       8.09642153      10.17921331        2      -0.00030716       0.00027289      -0.00026898
Ti      -1.84938695       9.84635754      11.47575365        0      -0.00033578      -0.00002084       0.00029427
Ti      -0.33695735       8.97345323       8.87629678        0      -0.00009386       0.00013314      -0.00004437
O       -1.85449137       9.84346152       7.93921463        1      -0.00033274      -0.00011614       0.00027358
O       -0.31042718       8.97686399      12.35985494        3      -0.00007532      -0.00011598       0.00002628
C        5.72366110       0.22779941      10.16332964        2      -0.00043146      -0.00016228      -0.00020244
Ti       5.72778441       1.97573059      11.45840910        0      -0.00007649       0.00021989       0.00043049
Ti       7.23983660       1.10120366       8.87079496        0      -0.00006237       0.00026024      -0.00022632
O        5.72282441       1.97180948       7.92994683        1       0.00005047      -0.00009095       0.00030680
O        7.24179096       1.10167509      12.38903177        3       0.00006858      -0.00011593       0.00006812
C        4.20829204       2.84929615      10.14932033        2      -0.00035253      -0.00016341      -0.00011891
Ti       4.22561930       4.58968937      11.37514638        0       0.00031611       0.00051379      -0.00013878
Ti       5.73009463       3.72109247       8.85634061        0      -0.00031974       0.00023272      -0.00015219
O        4.21502338       4.59579499       7.90982849        1      -0.00026106       0.00015870       0.00014833
O        5.71314697       3.73092477      12.38045197        3      -0.00010127       0.00000584       0.00007040
C        2.69471049       5.47355579      10.11988178        2      -0.00012483      -0.00002606      -0.00023294
Ti       2.69524995       7.24368201      11.37109590        0       0.00008047      -0.00027350       0.00018811
Ti       4.21016658       6.34823523       8.84402988        0      -0.00005457      -0.00001686      -0.00002191
O        2.69469042       7.22794516       7.90816846        1       0.00004113       0.00010201      -0.00025598
O        4.17915224       6.33121625      12.39577958        3      -0.00023377      -0.00004643       0.00051624
C        1.18029801       8.09584361      10.14630781        2      -0.00022664       0.00025252      -0.00025873
Ti       1.18530237       9.85121814      11.45124530        0       0.00012792      -0.00022546      -0.00009787
Ti       2.69504704       8.97889284       8.85202993        0      -0.00000214       0.00000615       0.00028167
O        1.17342892       9.84736707       7.92874016        1      -0.00023547       0.00022758       0.00026606
O        2.69802548       8.96087404      12.37805287        3      -0.00013754       0.00039398      -0.00016386
C        8.75724165       0.22755398      10.15289072        2      -0.00027377      -0.00031371       0.00015229
Ti       8.75544333       1.97450456      11.45116455        0      -0.00015025       0.00001313      -0.00004203
Ti      10.26918045       1.10040250       8.86730462        0      -0.00023140       0.00032678      -0.00013587
O        8.75261051       1.97608037       7.92989514        1      -0.00005125      -0.00013643       0.00032035
O       10.27107593       1.09942292      12.38744826        3      -0.00036740       0.00002784       0.00008172
C        7.23984353       2.84948686      10.15804510        2      -0.00028989       0.00008284      -0.00013934
Ti       7.24052041       4.59589812      11.45851521        0      -0.00038794      -0.00009318      -0.00015296
Ti       8.75383064       3.72357432       8.87081910        0      -0.00014689      -0.00005580      -0.00003602
O        7.24138872       4.60204720       7.92999674        1       0.00005892       0.00018133       0.00008880
O        8.75449590       3.72175958      12.38907032        3      -0.00006827      -0.00026866       0.00022194
C        5.72420591       5.47495101      10.14936747        2      -0.00005824       0.00011935      -0.00012850
Ti       5.71831777       7.22105700      11.46022696        0       0.00008572      -0.00012228       0.00009544
Ti       7.24107717       6.34991523       8.87627266        0      -0.00021719      -0.00005689       0.00008624
O        5.73243135       7.22621154       7.92673286        1      -0.00004414       0.00018720      -0.00020735
O        7.22572064       6.34318863      12.39021442        3      -0.00013813       0.00022829      -0.00019360
C        4.21066849       8.09708120      10.14616903        2      -0.00002466       0.00015461      -0.00018815
Ti       4.20820375       9.84947899      11.45414132        0      -0.00045276      -0.00024131      -0.00014288
Ti       5.72616460       8.97255590       8.87191876        0      -0.00008506       0.00021730       0.00000591
O        4.21336792       9.84641407       7.92579353        1       0.00004538       0.00038423       0.00008385
O        5.71407286       8.96789762      12.39086827        3      -0.00012118      -0.00027393       0.00007839
C        0.57246348      -0.29614273      16.52802853       10      -0.00003190      -0.00019047       0.00056274
C        1.78329302       0.40209872      16.51346477       10       0.00000045      -0.00008408       0.00031049
C       -0.63950601       1.80173174      16.57351346       10       0.00028059      -0.00032416       0.00058331
C        0.57265288       2.50063615      16.61253033       10       0.00023305      -0.00009628      -0.00007714
C       -1.85243031       3.89967681      16.55655408       10       0.00024884       0.00014341      -0.00000514
C       -0.64243162       4.59914500      16.59352906       10       0.00020271      -0.00020254      -0.00018020
C       -3.05818895       6.00132052      16.43495915       10       0.00017518      -0.00005633      -0.00073970
C       -1.84988005       6.67910120      16.37089146       10       0.00004906      -0.00010698       0.00008577
C       -4.27045172       8.10418354      16.41823097       10       0.00003700      -0.00018896      -0.00038614
C       -3.08007028       8.81010859      16.32293281       10       0.00018853       0.00005562       0.00016485
C        2.99609178      -0.30222396      16.41778859       10       0.00017061       0.00016992       0.00005326
C        4.20947091       0.40235186      16.43246649       10       0.00022123      -0.00011058       0.00004767
C        1.78494348       1.79913851      16.58275894       10       0.00010611      -0.00009786       0.00015902
C        2.99763165       2.49798003      16.60448058       10      -0.00009438      -0.00020220       0.00080491
C        0.56877885       3.90069444      16.64461514       10      -0.00002805      -0.00010383       0.00038346
C        1.78127870       4.60033470      16.68921029       10      -0.00003158      -0.00002399       0.00026003
C       -0.64636187       6.00321728      16.51529671       10      -0.00001307      -0.00025181      -0.00019388
C        0.56922281       6.70320866      16.55955230       10       0.00023384      -0.00012025      -0.00039307
C       -1.84128601       8.09487059      15.93624372       10       0.00028813      -0.00023446      -0.00049245
C       -0.61948397       8.81024415      16.37085983       10       0.00034766      -0.00002629      -0.00089634
C        5.42334613      -0.30065658      16.43467000       10       0.00016110      -0.00011759       0.00008020
C        6.63574216       0.40421721      16.51682701       10       0.00016133      -0.00014917      -0.00042285
C        4.20952341       1.79716467      16.53482421       10       0.00006958       0.00006677      -0.00020113
C        5.42168334       2.50029128      16.55707994       10       0.00008611      -0.00022764      -0.00010190
C        2.99684630       3.89776037      16.68021183       10       0.00016249      -0.00041597      -0.00024574
C        4.21183319       4.60014938      16.67036230       10       0.00015794       0.00006049       0.00036817
C        1.77756516       6.00557306      16.67489504       10      -0.00008802      -0.00002346       0.00014751
C        2.99638528       6.70497208      16.68959682       10       0.00017138       0.00017691      -0.00004758
C        0.56761629       8.10594063      16.51542028       10       0.00004869      -0.00034193      -0.00001455
C        1.78554440       8.80455767      16.59388428       10       0.00002704      -0.00013463       0.00011484
C        7.84629003      -0.29405445      16.55683214       10       0.00031060      -0.00023839      -0.00053364
C        9.05829213       0.40431444      16.56044140       10       0.00007778       0.00011624       0.00020686
C        6.63389235       1.80172849      16.52891108       10       0.00000708      -0.00016941       0.00036674
C        7.84517655       2.50241936      16.53574011       10       0.00002805       0.00007873      -0.00036533
C        5.42408659       3.90025719      16.60532506       10       0.00017510      -0.00030817      -0.00001964
C        6.63529900       4.60231940      16.55738699       10       0.00007573      -0.00010710      -0.00013741
C        4.21261813       6.00355430      16.68058471       10       0.00033213      -0.00011919       0.00023048
C        5.42528013       6.70276940      16.60523155       10       0.00008254       0.00007756      -0.00037125
C        2.99603542       8.10485257      16.64523401       10       0.00006574       0.00007930      -0.00014240
C        4.21047492       8.80152286      16.61320220       10       0.00007876      -0.00014464       0.00041550
C       10.26965849      -0.29549971      16.57399179       10       0.00015924      -0.00027602      -0.00054002
C       11.48104634       0.40325602      16.55815688       10       0.00023929      -0.00002916       0.00028180
C        9.05712256       1.80269246      16.54082831       10       0.00040701      -0.00009715      -0.00025918
C       10.26874003       2.50086949      16.56015998       10       0.00036246       0.00017364       0.00004893
C        7.84636245       3.90177333      16.52907432       10       0.00019151       0.00005189      -0.00012296
C        9.05757393       4.59891276      16.51691640       10       0.00001176      -0.00001797      -0.00017745
C        6.63814592       6.00364995      16.53540735       10       0.00016651      -0.00034963       0.00010646
C        7.84606730       6.70108262      16.43300350       10      -0.00010192      -0.00000253       0.00029139
C        5.42414914       8.10241033      16.58350374       10       0.00005345      -0.00012493       0.00055915
C        6.63319398       8.80234819      16.51399286       10       0.00001417       0.00001777      -0.00041383
O       -1.81024536       8.07677408      14.58404016       11      -0.00017251       0.00004726      -0.00049555
Na       2.68142335       5.48136307      13.95509247       20       0.00009436      -0.00011105      -0.00010000
