134
Lattice="12.12 0.0 0.0 -6.06 10.496227893867395 0.0 0.0 0.0 40.0" Properties=species:S:1:pos:R:3:tags:I:1:forces:R:3 energy=-1216.9759548078355 stress="0.0030389337558345665 7.2305483505077e-07 -3.4603141450536156e-06 7.2305483505077e-07 0.0030459539861471844 -5.2813412094043985e-06 -3.4603141450536156e-06 -5.2813412094043985e-06 0.002307872195362667" pbc="T T F"
C       -0.30924078       0.75737276      10.04829326        2       0.00021549      -0.00009499       0.00027513
Ti      -0.30859913       2.50115085       8.74678518        0      -0.00023188      -0.00057279       0.00030314
Ti       1.20615577       1.62916491      11.34414880        0      -0.00026411      -0.00031306      -0.00022758
O       -0.30876654       2.52594523      12.27634347        3       0.00004726      -0.00013877      -0.00011534
O        1.20719568       1.63472806       7.81141066        1       0.00022194       0.00037211      -0.00006901
C       -1.82086674       3.38239438      10.03306416        2      -0.00000081       0.00032185       0.00016532
Ti      -1.82356106       5.12917823       8.71396028        0      -0.00064033      -0.00013944      -0.00002934
Ti      -0.30983828       4.24259748      11.26730826        0      -0.00044675      -0.00008463      -0.00030386
O       -1.83221738       5.15714833      12.28114491        3       0.00026033       0.00022031       0.00028211
O       -0.30792414       4.24350424       7.78878437        1      -0.00005438       0.00017349      -0.00001027
C       -3.33906616       6.00207150       9.99332742        2       0.00005721      -0.00014982       0.00038295
Ti      -3.34050036       7.75886415       8.70751698        0      -0.00014244      -0.00006863       0.00008366
Ti      -1.83096050       6.89333957      11.22258572        0      -0.00056261      -0.00001525       0.00000785
O       -3.35798738       7.72239710      12.23537807        3       0.00014482      -0.00011826       0.00033256
O       -1.82138520       6.88160458       7.77405784        1       0.00037855      -0.00015190       0.00031746
C       -4.85633998       8.63361458      10.01403029        2       0.00014557       0.00018069      -0.00010668
Ti      -4.85305481      10.38188767       8.75506189        0       0.00018170      -0.00059682       0.00016278
Ti      -3.34019920       9.49725575      11.33187022        0      -0.00036175      -0.00037034       0.00011329
O       -4.85520108      10.36956368      12.27755392        3      -0.00000796       0.00015541       0.00010116
O       -3.33666063       9.51623002       7.80201271        1      -0.00014903      -0.00004010      -0.00049401
C        2.72052035       0.75635939      10.04947172        2      -0.00018420      -0.00065490       0.00043208
Ti       2.72249011       2.50105834       8.74917416        0       0.00029719       0.00005311       0.00007949
Ti       4.23533867       1.62901678      11.34320789        0      -0.00040402      -0.00029604      -0.00019820
O        2.71831939       2.52158450      12.27520358        3      -0.00044106       0.00007126       0.00071723
O        4.23747548       1.63237740       7.81489388        1      -0.00045283       0.00005554      -0.00018994
C        1.20513277       3.38419755      10.03573031        2      -0.00010138      -0.00004360       0.00062680
Ti       1.20732408       5.12872299       8.71879391        0       0.00036664       0.00008834       0.00008625
Ti       2.71895263       4.24345319      11.27625091        0      -0.00017752      -0.00042606      -0.00063166
O        1.21817722       5.16792244      12.31513954        3      -0.00010231      -0.00022466      -0.00008420
O        2.72087046       4.24236405       7.79067007        1      -0.00008276       0.00032663      -0.00030544
C       -0.30778277       6.00119326      10.00141603        2      -0.00013017       0.00019745       0.00023120
Ti      -0.30765526       7.75950294       8.71368404        0       0.00035897      -0.00001268      -0.00064226
Ti       1.21471579       6.89013935      11.21905774        0       0.00036805       0.00013905       0.00031253
O       -0.29848738       7.71643063      12.24628166        3      -0.00010708       0.00010046       0.00005281
O        1.20571418       6.88134541       7.77778358        1       0.00009478       0.00001588      -0.00000266
C       -1.82405063       8.63029893      10.02352727        2       0.00020666       0.00006070      -0.00004585
Ti      -1.82295281      10.38265042       8.75764741        0       0.00006463      -0.00008493      -0.00017602
Ti      -0.30828269       9.49426319      11.33999485        0       0.00022316       0.00003847       0.00008222
O       -1.82517267      10.36622112      12.27370336        3       0.00018901       0.00033040       0.00016408
O       -0.30780330       9.51494667       7.80638852        1      -0.00008307      -0.00048352      -0.00020265
C        5.75186819       0.75545969      10.05370791        2      -0.00011655      -0.00051972       0.00053430
Ti       5.75152157       2.50345680       8.75798563        0      -0.00034173       0.00001413       0.00048703
Ti       7.26687833       1.62800094      11.34436281        0       0.00033931      -0.00043824       0.00023726
O        5.75161735       2.51974970      12.27988079        3      -0.00045155       0.00043602       0.00031991
O        7.26564065       1.63157992       7.81540280        1      -0.00012389       0.00049459      -0.00021474
C        4.23622825       3.38261855      10.03981490        2       0.00018416       0.00041422       0.00043470
Ti       4.23531499       5.12613776       8.72068059        0      -0.00040113       0.00034209      -0.00045415
Ti       5.75044979       4.25586946      11.32445471        0       0.00014126       0.00057395       0.00001466
O        4.22770141       5.15023217      12.27477625        3      -0.00001841      -0.00008356       0.00022882
O        5.75091584       4.24108250       7.79422238        1      -0.00033674       0.00033977       0.00009718
C        2.72324780       6.00135798       9.99933650        2       0.00051943      -0.00011596      -0.00037018
Ti       2.72271900       7.75886072       8.71486695        0      -0.00012392      -0.00004272      -0.00018402
Ti       4.25561176       6.89198428      11.22575501        0       0.00007476       0.00023017      -0.00022056
O        2.72880558       7.71546970      12.27929559        3       0.00039718      -0.00002687      -0.00012991
O        4.23528407       6.87921664       7.77568621        1      -0.00034342       0.00024569       0.00015249
C        1.20954208       8.63025032      10.02541727        2      -0.00038848       0.00019345       0.00010897
Ti       1.20603484      10.38158009       8.75963021        0      -0.00005004       0.00002269      -0.00000887
Ti       2.72253407       9.49582098      11.33464479        0       0.00011037      -0.00026244      -0.00017467
O        1.20778333      10.36430875      12.28101378        3      -0.00017832      -0.00015928      -0.00017683
O        2.71981414       9.51544112       7.80498003        1       0.00009507       0.00028938       0.00010617
C        8.78166541       0.75436801      10.05312051        2      -0.00006597      -0.00000375      -0.00005461
Ti       8.78005821       2.50058545       8.74913168        0      -0.00016991      -0.00023402      -0.00046259
Ti      10.29674851       1.62720221      11.34488865        0      -0.00059978       0.00028698      -0.00008228
O        8.78335606       2.52253735      12.27592458        3      -0.00007922       0.00032243       0.00000065
O       10.29508901       1.63311832       7.81185781        1      -0.00035633       0.00039143      -0.00002405
C        7.26522351       3.38114000      10.03751203        2      -0.00010326       0.00044716       0.00053467
Ti       7.26633858       5.12548695       8.71826766        0      -0.00035416       0.00025310       0.00035028
Ti       8.78505007       4.24340893      11.27201515        0       0.00006923       0.00035364      -0.00038450
O        7.27582675       5.15011199      12.26248142        3       0.00024035      -0.00010273      -0.00016817
O        8.78149800       4.24120980       7.78850716        1       0.00017090       0.00020149      -0.00034346
C        5.74881183       6.00051811       9.99924661        2      -0.00040496      -0.00024207       0.00009109
Ti       5.75036092       7.76238028       8.70459571        0       0.00003710      -0.00068424       0.00024219
Ti       7.24497653       6.89362020      11.21741268        0      -0.00001664       0.00013608       0.00035768
O        5.75150405       7.73563826      12.24607082        3       0.00028935      -0.00016352       0.00008150
O        7.26530896       6.87919238       7.77248685        1       0.00012869       0.00054516       0.00027043
C        4.23533519       8.63161548      10.02125334        2       0.00005485       0.00024375      -0.00001075
Ti       4.23483310      10.38159619       8.75640306        0      -0.00006171       0.00026808       0.00033608
Ti       5.75022803       9.50093128      11.32977646        0       0.00002323      -0.00009929       0.00026956
O        4.23638142      10.36902836      12.28180798        3       0.00029155      -0.00010735      -0.00007211
O        5.74950609       9.51618940       7.79989266        1       0.00016012      -0.00018517      -0.00018364
C        0.50161957      -1.18563628      16.75282261       10       0.00031021       0.00034709      -0.00062808
C        1.71149089      -0.48722216      16.69839941       10       0.00031765       0.00009720      -0.00087462
C       -0.70904227       0.91010271      16.77681164       10       0.00007517      -0.00021957      -0.00021206
C        0.50334568       1.60816063      16.76088405       10      -0.00011511       0.00038556       0.00005261
C       -1.92200237       3.00156697      16.92026826       10      -0.00001184       0.00009901       0.00033021
C       -0.70865361       3.69919428      16.93943730       10      -0.00018294       0.00013327      -0.00006446
C       -3.13001232       5.10570211      16.92190896       10       0.00005865       0.00005922      -0.00027857
C       -1.92217084       5.79074225      16.86790370       10       0.00011275       0.00011713      -0.00046074
C       -4.33995991       7.21436474      16.80734281       10      -0.00021058      -0.00023938      -0.00066029
C       -3.14504620       7.91514016      16.69970847       10       0.00001045      -0.00042047      -0.00034035
C        2.92634306      -1.19366263      16.66634451       10       0.00030582      -0.00023063      -0.00063641
C        4.13836400      -0.48908819      16.60831404       10       0.00003497       0.00025151      -0.00090974
C        1.71407732       0.90993785      16.67826324       10      -0.00014001       0.00002364      -0.00012144
C        2.92571723       1.60898702      16.63267528       10      -0.00006370      -0.00049608      -0.00057132
C        0.50282431       3.00557759      16.83248596       10       0.00002243       0.00050462       0.00002489
C        1.71453881       3.70622974      16.78382727       10       0.00038579       0.00000915       0.00001120
C       -0.71451464       5.10619693      16.93130419       10      -0.00008572      -0.00022162      -0.00006481
C        0.50138912       5.80846711      16.86317842       10       0.00000025      -0.00019748       0.00013777
C       -1.92242158       7.17353403      16.34834521       10       0.00014351       0.00001045      -0.00056467
C       -0.69864200       7.91510910      16.69546211       10      -0.00016779       0.00028888      -0.00076378
C        5.35056233      -1.19361114      16.65851010       10      -0.00019980       0.00012126       0.00007585
C        6.56537697      -0.48660653      16.68499674       10       0.00003520      -0.00040975       0.00015043
C        4.13837638       0.90814596      16.59175662       10       0.00033671       0.00025247      -0.00037329
C        5.35126938       1.60918046      16.61958865       10       0.00038113       0.00028979       0.00017068
C        2.92542849       3.00813254      16.68645379       10       0.00004219      -0.00067244       0.00011167
C        4.13876700       3.70788034      16.69382643       10      -0.00030971      -0.00012912      -0.00058365
C        1.71181312       5.10764782      16.82314877       10       0.00032621      -0.00005780      -0.00027749
C        2.92632300       5.80883003      16.79891378       10       0.00008735       0.00020641       0.00017026
C        0.49602109       7.21474537      16.80662424       10      -0.00034393      -0.00012585       0.00050375
C        1.71562067       7.91426467      16.79767945       10      -0.00002045      -0.00016823       0.00042632
C        7.77530466      -1.18475489      16.74469513       10       0.00002960      -0.00017001       0.00048194
C        8.98773418      -0.48709108      16.74674224       10      -0.00010180       0.00048227       0.00086642
C        6.56310577       0.91035960      16.65932676       10       0.00012761      -0.00045834       0.00029459
C        7.77379171       1.60872106      16.74077840       10      -0.00003376      -0.00003991       0.00079307
C        5.35182490       3.00810843      16.67438998       10       0.00006867       0.00028177       0.00010699
C        6.56242847       3.70701718      16.76459854       10       0.00016634      -0.00024911       0.00085424
C        4.13993413       5.10726295      16.75897140       10      -0.00012775      -0.00003327       0.00034281
C        5.35153793       5.80924907      16.78559942       10       0.00009181      -0.00024209       0.00036958
C        2.92567604       7.21188460      16.80480788       10      -0.00000647       0.00000839       0.00065233
C        4.13930426       7.91040941      16.78374960       10       0.00001984      -0.00025098       0.00002516
C       10.19886360      -1.18673834      16.76502877       10      -0.00042921      -0.00005755       0.00081532
C       11.40987113      -0.48727178      16.75283157       10      -0.00016958      -0.00031629      -0.00073061
C        8.98625573       0.91060597      16.76648587       10       0.00014741       0.00061403       0.00058759
C       10.19848497       1.60632317      16.82410496       10       0.00037258       0.00008499       0.00035129
C        7.77399862       3.00622576      16.81070779       10       0.00019551      -0.00002950      -0.00014831
C        8.98468265       3.69930651      16.92585712       10       0.00005972       0.00008384       0.00022383
C        6.56407354       5.10822492      16.80854971       10      -0.00000331      -0.00039355      -0.00055134
C        7.77472159       5.80800142      16.85286600       10      -0.00020861      -0.00026352      -0.00005284
C        5.35164807       7.21006106      16.79727306       10       0.00040135       0.00016735      -0.00041679
C        6.56067979       7.91326259      16.79882331       10       0.00025679       0.00037284      -0.00063585
O       -1.92885616       7.00646312      14.96392036       11       0.00015566      -0.00011050      -0.00036738
Na      -0.33205723       6.01593603      13.85107400        0       0.00013870      -0.00027784      -0.00057620
Na       3.03148204       6.09378976      13.92707330        0       0.00020634       0.00011078      -0.00047415
Na       8.48889299       6.12788468      13.89247241        0       0.00057339      -0.00031653       0.00039576
