135
Lattice="12.12 0.0 0.0 -6.06 10.496227893867395 0.0 0.0 0.0 40.0" Properties=species:S:1:pos:R:3:tags:I:1:forces:R:3 energy=-1220.7499295998396 stress="0.0030356424047543696 -1.103398466074992e-06 -1.6998209032671488e-06 -1.103398466074992e-06 0.003037682419081575 2.954076522753106e-06 -1.6998209032671488e-06 2.954076522753106e-06 0.0022750535486123283" pbc="T T F"
C       -0.34914369       0.88007549       9.99978693        2      -0.00001592       0.00029058       0.00011854
Ti      -0.34872494       2.62437005       8.69767807        0      -0.00005611       0.00024202      -0.00005856
Ti       1.16453283       1.75233096      11.29405751        0      -0.00012784       0.00013452      -0.00023882
O       -0.34779211       2.64833024      12.22951940        3       0.00010649       0.00013626       0.00009738
O        1.16793735       1.75905921       7.75979245        1      -0.00012697       0.00003665      -0.00005379
C       -1.86110056       3.50360426       9.98211181        2      -0.00012218       0.00017882      -0.00052437
Ti      -1.86357603       5.24999542       8.66433832        0      -0.00010744      -0.00002640      -0.00001379
Ti      -0.35114995       4.36222965      11.20788623        0       0.00020433       0.00011152       0.00022765
O       -1.87423809       5.27326976      12.23450428        3      -0.00012875       0.00011445       0.00015266
O       -0.34573805       4.36950280       7.74303429        1       0.00031287       0.00000781      -0.00054666
C       -3.37962544       6.12755408       9.95302312        2       0.00003319      -0.00004139       0.00010438
Ti      -3.37888824       7.87938095       8.65902470        0      -0.00001009      -0.00017535       0.00027565
Ti      -1.86776357       7.00479064      11.16095361        0       0.00023120      -0.00006158       0.00050160
O       -3.36626118       7.86606590      12.23191955        3      -0.00006277      -0.00012127      -0.00002851
O       -1.86128082       7.00064436       7.72411301        1       0.00013924      -0.00013959       0.00037477
C       -4.89445237       8.75391483       9.96769737        2      -0.00001884      -0.00025865      -0.00046517
Ti      -4.89679197      10.50672773       8.69466529        0      -0.00012515      -0.00024973      -0.00017746
Ti      -3.39589297       9.62842441      11.20615561        0       0.00017998      -0.00033163      -0.00012146
O       -4.88351666      10.49040000      12.22533704        3       0.00036165      -0.00020871       0.00034542
O       -3.38053620       9.63702382       7.74097648        1       0.00005589       0.00004117       0.00013833
C        2.68096707       0.88129902       9.98918221        2       0.00007507       0.00033578      -0.00001211
Ti       2.68273368       2.62678246       8.70374070        0       0.00012756       0.00015663      -0.00009580
Ti       4.19515429       1.75154541      11.28847735        0       0.00028001       0.00027147      -0.00025928
O        2.68083855       2.63518694      12.23115577        3      -0.00002651      -0.00000281       0.00024125
O        4.19729218       1.76087732       7.76005017        1       0.00011145      -0.00012354       0.00020419
C        1.16687662       3.50625358       9.98984400        2      -0.00008468       0.00020162      -0.00023657
Ti       1.16932486       5.25291238       8.67961258        0       0.00053691       0.00026060      -0.00011997
Ti       2.67852473       4.36934040      11.24169294        0       0.00040942       0.00041672       0.00010289
O        1.17603182       5.28723238      12.26929107        3      -0.00002325       0.00018810       0.00010718
O        2.68350127       4.37128468       7.74946441        1      -0.00010563       0.00015758      -0.00027213
C       -0.34689331       6.12665258       9.96032910        2       0.00015146      -0.00025023      -0.00030527
Ti      -0.34826915       7.88020429       8.66314803        0       0.00034828      -0.00014562       0.00006519
Ti       1.16718825       7.01471276      11.19518361        0       0.00002510      -0.00007987       0.00007830
O       -0.36837495       7.86169443      12.23731187        3      -0.00014094       0.00046083      -0.00048508
O        1.17043151       7.00173294       7.73565440        1      -0.00002565       0.00027151       0.00007262
C       -1.86374488       8.75145700       9.95630343        2      -0.00005374      -0.00000406      -0.00044504
Ti      -1.86282743      10.50497412       8.68534395        0      -0.00016883       0.00000018      -0.00009550
Ti      -0.33167254       9.62681296      11.21169537        0      -0.00030397      -0.00047911       0.00015347
O       -1.86469265      10.47646409      12.22736455        3      -0.00004038      -0.00007553      -0.00027611
O       -0.34378201       9.63587079       7.74430306        1      -0.00014860       0.00010216       0.00012964
C        5.71185368       0.88033553       9.99246313        2      -0.00002047       0.00002059      -0.00014628
Ti       5.71144226       2.62857625       8.71011460        0       0.00001772      -0.00033517       0.00006087
Ti       7.22866771       1.75121208      11.29406858        0      -0.00012265      -0.00006072       0.00021995
O        5.70968031       2.63428804      12.23412898        3      -0.00051474      -0.00004645       0.00007121
O        7.22530392       1.75633292       7.76276075        1       0.00013400      -0.00024962       0.00007639
C        4.19625838       3.50465167       9.99804382        2       0.00008501      -0.00001612      -0.00010008
Ti       4.19529045       5.25053658       8.68431667        0       0.00030600      -0.00001227       0.00010450
Ti       5.70980610       4.37899901      11.28013396        0      -0.00003002       0.00022036       0.00010028
O        4.18734827       5.27381055      12.24100060        3       0.00020235       0.00003142       0.00008248
O        5.70868285       4.37020730       7.75213153        1      -0.00000401       0.00009692      -0.00004984
C        2.68012589       6.12702788       9.96712958        2       0.00032552       0.00008591       0.00010670
Ti       2.68262908       7.87944764       8.67844857        0      -0.00010992       0.00018563       0.00006499
Ti       4.21590074       7.01602945      11.18607426        0       0.00027739      -0.00024662       0.00006613
O        2.68531159       7.84345897      12.24383335        3      -0.00010336       0.00014314      -0.00002087
O        4.19591513       7.00031451       7.73848994        1       0.00007620       0.00003346      -0.00020372
C        1.16907972       8.75121858       9.97680145        2       0.00000749      -0.00002726       0.00035663
Ti       1.17062314      10.50627324       8.69832968        0       0.00027804       0.00014045       0.00000866
Ti       2.68244982       9.62133284      11.28969408        0      -0.00009906       0.00025160      -0.00000457
O        1.15682587      10.48557768      12.22794258        3      -0.00023868      -0.00011229      -0.00013056
O        2.68252257       9.63396495       7.75773385        1      -0.00007072      -0.00025516       0.00003597
C        8.74232733       0.87725945      10.00398251        2      -0.00030763       0.00011242      -0.00015332
Ti       8.74089170       2.62402131       8.69957670        0       0.00006585      -0.00020081       0.00014087
Ti      10.25679775       1.75053686      11.29370721        0      -0.00019545       0.00009496       0.00014796
O        8.74202522       2.64434623      12.22805336        3       0.00004128      -0.00019531      -0.00010136
O       10.25549705       1.75470008       7.76317859        1       0.00012033      -0.00007959       0.00001478
C        7.22368262       3.50340266       9.99047362        2       0.00014864      -0.00020688      -0.00003612
Ti       7.22460007       5.25022427       8.67889504        0       0.00008689       0.00024029       0.00009141
Ti       8.74545340       4.36344961      11.21277536        0      -0.00006774      -0.00013038      -0.00009413
O        7.23760941       5.27002858      12.22116853        3       0.00007410       0.00039416      -0.00015035
O        8.73963607       4.36750806       7.74245973        1       0.00009045      -0.00011714      -0.00030331
C        5.71287912       6.12622672       9.96730333        2      -0.00023025      -0.00027439       0.00021189
Ti       5.71137685       7.88266289       8.66945248        0      -0.00034598      -0.00020170       0.00016223
Ti       7.21473767       7.01842459      11.19723408        0       0.00020467      -0.00020562       0.00007763
O        5.71447634       7.86266858      12.21122718        3       0.00015190      -0.00013007       0.00021524
O        7.22144135       7.00003489       7.73140556        1       0.00015977      -0.00010191       0.00042516
C        4.19595786       8.75485136       9.98174794        2      -0.00029025      -0.00009024       0.00006724
Ti       4.19547273      10.50345775       8.71205499        0       0.00013386       0.00025953       0.00032148
Ti       5.71150731       9.62617289      11.28615833        0       0.00009719      -0.00013915       0.00001223
O        4.19789422      10.49273416      12.23834774        3       0.00001319       0.00035303       0.00015096
O        5.70823528       9.63448829       7.75353540        1      -0.00033740      -0.00028609       0.00024282
C        0.50160713      -1.37778582      16.92359421       10       0.00023901       0.00016072       0.00064906
C        1.71175485      -0.67777356      16.89404709       10       0.00028833      -0.00000631       0.00013667
C       -0.70757493       0.71890449      16.88881753       10       0.00004727      -0.00026631       0.00000943
C        0.50384643       1.41777068      16.85287995       10      -0.00020479       0.00021704       0.00051215
C       -1.91964289       2.81361146      16.90323424       10       0.00015637      -0.00012209       0.00002943
C       -0.70822896       3.51159218      16.89300769       10      -0.00009663       0.00005981      -0.00008266
C       -3.12613730       4.91715886      16.87365519       10       0.00008692       0.00001681       0.00017783
C       -1.92008664       5.60318708      16.82550699       10       0.00016508       0.00007892       0.00037437
C       -4.33970571       7.02106618      16.88667297       10      -0.00027974       0.00003135       0.00054273
C       -3.14341886       7.72346787      16.82762504       10      -0.00002734      -0.00035934      -0.00021988
C        2.92576086      -1.38474774      16.86901741       10       0.00017071      -0.00028055       0.00028777
C        4.14008126      -0.67881382      16.83508247       10      -0.00014307       0.00009609      -0.00075877
C        1.71567923       0.71899172      16.83689357       10      -0.00014929       0.00007688       0.00029920
C        2.92738003       1.41795989      16.77942363       10      -0.00016407      -0.00015376       0.00028809
C        0.50377435       2.81644733      16.84228501       10      -0.00000019       0.00027272       0.00033124
C        1.71565474       3.51599531      16.79375201       10       0.00011706       0.00000758      -0.00005172
C       -0.71396124       4.91701953      16.87584711       10       0.00000258      -0.00005811       0.00038178
C        0.50483048       5.61610328      16.85588609       10      -0.00007212      -0.00008326      -0.00016157
C       -1.91992911       7.01677592      16.41275605       10       0.00033158      -0.00004449       0.00001359
C       -0.69693027       7.72318827      16.83058997       10       0.00007821       0.00028114       0.00034056
C        5.35428926      -1.38488189      16.87531967       10      -0.00023784       0.00024675      -0.00051037
C        6.56840079      -0.67749358      16.90510614       10      -0.00006491      -0.00025674      -0.00001181
C        4.14043856       0.71814148      16.78893053       10      -0.00004743       0.00013265      -0.00035348
C        5.35354339       1.41806101      16.78303625       10       0.00016062       0.00004251      -0.00005899
C        2.92794127       2.81734532      16.75503086       10      -0.00002197      -0.00028989       0.00007042
C        4.14089423       3.51681020      16.74258718       10      -0.00006047      -0.00004372      -0.00053414
C        1.71425976       4.91640017      16.81586447       10       0.00001901       0.00000152       0.00018456
C        2.92854156       5.61664261      16.82000945       10      -0.00011173       0.00022898      -0.00008990
C        0.49956933       7.02121263      16.88993605       10      -0.00001049       0.00008336      -0.00029739
C        1.71867611       7.72046551      16.92563934       10       0.00005521       0.00006551       0.00010243
C        7.77892038      -1.37726846      16.93392910       10      -0.00007795      -0.00002185      -0.00029221
C        8.99023901      -0.67885131      16.91640056       10      -0.00016920       0.00032069       0.00011849
C        6.56485621       0.71921703      16.84589274       10       0.00007484      -0.00029331      -0.00030142
C        7.77679417       1.41817178      16.85933376       10      -0.00005016      -0.00005407      -0.00039057
C        5.35353962       2.81715165      16.75670543       10       0.00006438       0.00011786      -0.00096274
C        6.56521616       3.51658416      16.79483360       10       0.00011847       0.00001745      -0.00007904
C        4.14164192       4.91663940      16.77648379       10      -0.00019503       0.00000129      -0.00017437
C        5.35302824       5.61768216      16.81373662       10      -0.00000682      -0.00017862       0.00008616
C        2.92812353       7.01815165      16.88434698       10      -0.00013225       0.00008120       0.00016884
C        4.14134716       7.71783619      16.89471181       10      -0.00023541      -0.00015017       0.00023214
C       10.20073681      -1.37907392      16.91649664       10      -0.00030829      -0.00011513       0.00016434
C       11.41099282      -0.67879751      16.90986127       10      -0.00011109      -0.00026507       0.00055548
C        8.98847230       0.71912864      16.89380888       10       0.00016562       0.00034899      -0.00003173
C       10.20052701       1.41596118      16.89255412       10       0.00025018      -0.00003013      -0.00029813
C        7.77688256       2.81694131      16.84404313       10       0.00001995      -0.00011186      -0.00069675
C        8.98899393       3.51195953      16.89255795       10       0.00008273      -0.00015511       0.00002745
C        6.56583016       4.91709215      16.81561756       10       0.00006430      -0.00009422      -0.00046373
C        7.77544653       5.61613353      16.85427705       10       0.00005547       0.00001179      -0.00011249
C        5.35301738       7.01715668      16.87611314       10      -0.00009709      -0.00004215      -0.00005684
C        6.56127046       7.72000000      16.91927417       10      -0.00015464       0.00019747       0.00005805
O       -1.92300946       7.01928172      14.98842716       11      -0.00044770      -0.00032047      -0.00013626
Na      -0.35276200       5.94654577      13.84223219        0      -0.00006999       0.00030929       0.00016592
Na       3.08896708       6.28838916      13.93487563        0      -0.00058173      -0.00031392       0.00039345
Na       8.51093446       6.06845088      13.87011834        0      -0.00019807       0.00017621       0.00004000
Na      -1.86740562       8.95263985      13.86672259        0       0.00003831       0.00014324      -0.00041649
