133
Lattice="12.12 0.0 0.0 -6.06 10.496227893867395 0.0 0.0 0.0 40.0" Properties=species:S:1:pos:R:3:tags:I:1:forces:R:3 stress="0.003068176492978177 3.037470843155171e-07 -9.564527098835183e-08 3.037470843155171e-07 0.0030445822993409983 4.4663863734054686e-07 -9.564527098835183e-08 4.4663863734054686e-07 0.0024980312695570186" energy=-1214.6219383987407 pbc="T T F"
C        0.25657779      -0.07283236      10.18068449        2       0.00038923      -0.00032325       0.00044526
Ti       0.25520835       1.67555932       8.89016359        0      -0.00021998      -0.00022102       0.00049202
Ti       1.77227572       0.80144535      11.47711322        0      -0.00005304      -0.00003773      -0.00023381
O        0.26135683       1.68237842      12.40743290        3      -0.00027957      -0.00034031      -0.00011812
O        1.76785559       0.80075435       7.94702242        1      -0.00005199      -0.00010336       0.00031308
C       -1.25870740       2.55342148      10.18491117        2       0.00031372       0.00014906      -0.00017247
Ti      -1.25809202       4.29985616       8.88274422        0      -0.00037635       0.00028415       0.00031611
Ti       0.26061993       3.42863938      11.47441648        0      -0.00013433      -0.00008015      -0.00040648
O       -1.23810461       4.31089425      12.37933838        3       0.00023060      -0.00002162      -0.00028827
O        0.24907056       3.42096685       7.94190908        1      -0.00015210      -0.00009317       0.00004847
C       -2.77340790       5.17393825      10.17893236        2      -0.00007303       0.00041379       0.00032546
Ti      -2.77344454       6.92735419       8.89089126        0       0.00015103       0.00007436       0.00048672
Ti      -1.25640324       6.05054810      11.47546645        0       0.00008625      -0.00007631      -0.00014758
O       -2.77342501       6.92441733      12.40628395        3       0.00005545      -0.00006111       0.00027344
O       -1.26216362       6.04867032       7.94495418        1       0.00032058       0.00028272       0.00012157
C       -4.28788026       7.80191944      10.17464929        2       0.00005253      -0.00013009       0.00034414
Ti      -4.28799100       9.54875861       8.89077530        0       0.00034910       0.00002546       0.00027341
Ti      -2.77342898       8.67490318      11.47057841        0      -0.00000602       0.00027671      -0.00059950
O       -4.28927022       9.54905953      12.40970812        3      -0.00004617       0.00024946       0.00054610
O       -2.77343981       8.67488979       7.94994153        1       0.00009191       0.00018513       0.00058837
C        3.28657441      -0.07318523      10.17700586        2      -0.00004117      -0.00005740       0.00006613
Ti       3.28656603       1.66972301       8.87352283        0       0.00001103      -0.00041832       0.00016985
Ti       4.80087610       0.80147349      11.47708074        0       0.00010900      -0.00007698      -0.00007040
O        3.28659335       1.68891888      12.39914067        3      -0.00006499      -0.00024904       0.00072700
O        4.80525292       0.80075063       7.94701090        1       0.00033773      -0.00003379       0.00027408
C        1.77154164       2.55067295      10.16497595        2       0.00006905      -0.00007880       0.00016896
Ti       1.77174655       4.30078214       8.86136591        0       0.00012262       0.00031216       0.00019038
Ti       3.28657466       3.40689823      11.39081335        0      -0.00009102       0.00013222      -0.00050124
O        1.80233835       4.31814130      12.41204867        3       0.00029480       0.00057545       0.00032612
O        3.28656997       3.41976806       7.92675088        1      -0.00001233       0.00013576      -0.00014091
C        0.25891457       5.17605513      10.16083160        2       0.00006998       0.00013904      -0.00021782
Ti       0.25128370       6.92891249       8.87254492        0       0.00003669      -0.00037044      -0.00006121
Ti       1.75641405       6.05984734      11.38935709        0      -0.00003015      -0.00006713      -0.00080443
O        0.26881932       6.91952170      12.39743160        3       0.00004633      -0.00013101       0.00040082
O        1.76709092       6.05332642       7.92600949        1       0.00038353       0.00021824      -0.00052128
C       -1.25898489       7.80191845      10.17464352        2       0.00000205      -0.00014944       0.00032880
Ti      -1.25887001       9.54877972       8.89080801        0      -0.00032684      -0.00014409      -0.00006230
Ti       0.25607760       8.67440963      11.47569441        0       0.00030605      -0.00017376      -0.00032547
O       -1.25756461       9.54908607      12.40970728        3      -0.00002864       0.00010535       0.00057134
O        0.25706119       8.67865033       7.94637963        1      -0.00007617      -0.00002598      -0.00011509
C        6.31656491      -0.07281811      10.18064031        2      -0.00027565      -0.00039841       0.00044994
Ti       6.31795830       1.67556169       8.89010375        0       0.00002059      -0.00030116       0.00058025
Ti       7.82790998       0.79736054      11.46576218        0       0.00018469       0.00007614      -0.00003540
O        6.31183127       1.68239572      12.40735680        3      -0.00003592      -0.00047317       0.00013622
O        7.83523644       0.80474813       7.95284250        1       0.00007036      -0.00006973       0.00013461
C        4.80159465       2.55068836      10.16493621        2      -0.00005777      -0.00014258       0.00039783
Ti       4.80140292       4.30076643       8.86134030        0      -0.00016148       0.00044064       0.00028114
Ti       6.31252122       3.42866721      11.47435744        0       0.00016788      -0.00012228      -0.00019290
O        4.77071859       4.31815234      12.41203512        3      -0.00017274       0.00056261       0.00076738
O        6.32411961       3.42096502       7.94190284        1      -0.00021419       0.00005699      -0.00003202
C        3.28656408       5.17515417      10.13768018        2       0.00000260      -0.00017427      -0.00060710
Ti       3.28656384       6.92530623       8.86061577        0       0.00007387       0.00028960       0.00028230
Ti       4.81669992       6.05980772      11.38942098        0       0.00004689       0.00031039      -0.00092874
O        3.28652416       6.89146459      12.41252957        3       0.00008457       0.00011757       0.00053086
O        4.80602326       6.05334745       7.92602375        1      -0.00016601       0.00002919      -0.00062102
C        1.77232278       7.80016434      10.16496053        2      -0.00004180       0.00021640      -0.00018342
Ti       1.77258861       9.55073874       8.88914475        0      -0.00033792       0.00005810       0.00008498
Ti       3.28657161       8.66902619      11.47569948        0       0.00003382      -0.00012617       0.00003236
O        1.77436387       9.53746791      12.40746077        3      -0.00026428       0.00016257       0.00023883
O        3.28659310       8.68291021       7.94341276        1      -0.00007420      -0.00042890      -0.00055742
C        9.34658534      -0.07644141      10.18307688        2      -0.00004427      -0.00029728      -0.00024625
Ti       9.34658851       1.67702769       8.89599385        0       0.00002874      -0.00020404      -0.00072246
Ti      10.86525081       0.79733723      11.46580509        0      -0.00036270       0.00021687      -0.00004805
O        9.34655306       1.65716863      12.42155230        3       0.00007739       0.00011922      -0.00087973
O       10.85794685       0.80473358       7.95289140        1      -0.00018860       0.00003298      -0.00007285
C        7.83186094       2.55341959      10.18488917        2      -0.00030806       0.00021725      -0.00020736
Ti       7.83127253       4.29984037       8.88279942        0       0.00019315       0.00044315      -0.00016089
Ti       9.34658855       3.44281922      11.44891194        0      -0.00007324      -0.00000340       0.00004187
O        7.81123522       4.31092871      12.37921227        3      -0.00018422      -0.00027827       0.00014491
O        9.34657696       3.42181514       7.94623867        1       0.00007693      -0.00033692      -0.00023031
C        6.31420045       5.17607300      10.16082267        2       0.00001721      -0.00001951      -0.00008403
Ti       6.32184051       6.92888338       8.87257308        0       0.00004360      -0.00020285      -0.00013370
Ti       7.82954643       6.05057060      11.47544592        0      -0.00020736      -0.00019736      -0.00004897
O        6.30433586       6.91951425      12.39743940        3      -0.00023496      -0.00019699       0.00010657
O        7.83530775       6.04866989       7.94498482        1      -0.00037454       0.00024573      -0.00000995
C        4.80082634       7.80015172      10.16499635        2      -0.00009854       0.00029434      -0.00023278
Ti       4.80059874       9.55072599       8.88917503        0       0.00009041       0.00016708       0.00010119
Ti       6.31703968       8.67437333      11.47575484        0      -0.00009879      -0.00002217      -0.00069030
O        4.79874705       9.53746851      12.40752039        3       0.00021491       0.00012220      -0.00003891
O        6.31610393       8.67865867       7.94637475        1      -0.00009562      -0.00022010       0.00008315
C       -0.34837518       0.18028090      16.50636911       10      -0.00024023      -0.00024840       0.00007155
C        0.86157344       0.87802263      16.57152342       10      -0.00022267      -0.00013070      -0.00022289
C       -1.55032614       2.27239813      16.34711648       10      -0.00017564      -0.00021240       0.00006007
C       -0.35948191       2.97429127      16.50263438       10      -0.00000514      -0.00005296      -0.00008786
C       -2.77430800       4.39360448      16.44259532       10      -0.00000153      -0.00019940      -0.00003305
C       -1.56933770       5.07646243      16.54382152       10       0.00016866      -0.00028352       0.00044574
C       -3.98417572       6.48096736      16.61207721       10       0.00004903       0.00017788       0.00029631
C       -2.77432025       7.18046963      16.61592573       10       0.00003404       0.00033347      -0.00018691
C       -5.19842602       8.57818228      16.59678074       10      -0.00001108      -0.00019253       0.00044420
C       -3.98641559       9.27725003      16.60302168       10      -0.00010312       0.00010396      -0.00053487
C        2.07377820       0.17932771      16.60957425       10      -0.00020794       0.00008767      -0.00013815
C        3.28570367       0.87816280      16.63677066       10      -0.00016047      -0.00018268       0.00050301
C        0.85903331       2.27582180      16.59445302       10       0.00000717       0.00000721       0.00000780
C        2.06988979       2.97514559      16.67349760       10       0.00021388       0.00000665      -0.00014788
C       -0.35341334       4.37725208      16.55398318       10       0.00050747      -0.00004257      -0.00063847
C        0.85530261       5.07580286      16.64758969       10       0.00047398       0.00001783      -0.00070723
C       -1.56448014       6.48094979      16.61360693       10      -0.00010608       0.00002651      -0.00003091
C       -0.35240507       7.17843105      16.62089212       10      -0.00008248       0.00003539      -0.00074043
C       -2.77430404       8.57897209      16.61626939       10      -0.00005310       0.00038030       0.00001204
C       -1.56216490       9.27721916      16.60394571       10      -0.00005037       0.00034334      -0.00020948
C        4.49763363       0.17930339      16.60993915       10      -0.00003130       0.00029426      -0.00029902
C        5.70982807       0.87799425      16.57169212       10       0.00012347       0.00013552       0.00003829
C        3.28568059       2.27721232      16.67656056       10       0.00013199      -0.00009111      -0.00024313
C        4.50145331       2.97515954      16.67272586       10       0.00035463      -0.00020334       0.00010655
C        2.06947330       4.37576359      16.70103283       10      -0.00018835      -0.00029161       0.00054133
C        3.28570811       5.07721228      16.73198133       10       0.00032445      -0.00006224       0.00015692
C        0.85898320       6.47808259      16.64575374       10      -0.00006337       0.00020035       0.00006974
C        2.07157005       7.18015152      16.64166075       10      -0.00010089       0.00017942       0.00026967
C       -0.35014496       8.57814849      16.59870113       10      -0.00020371       0.00018168      -0.00020412
C        0.86134310       9.27872463      16.54877520       10      -0.00006925       0.00029696      -0.00008855
C        6.91979928       0.18023906      16.50705596       10       0.00013776       0.00022426       0.00002758
C        8.13293894       0.88483278      16.40333757       10       0.00011014       0.00003888      -0.00067107
C        5.71228449       2.27581422      16.59363324       10       0.00058930       0.00002351       0.00011456
C        6.93077305       2.97426867      16.50143639       10       0.00053056       0.00027823       0.00004908
C        4.50192021       4.37578071      16.69980864       10      -0.00037549      -0.00026651       0.00019852
C        5.71603187       5.07583332      16.64522699       10      -0.00034831      -0.00008077       0.00047025
C        3.28573284       6.48101480      16.68520037       10      -0.00026466      -0.00006904      -0.00000787
C        4.49985872       7.18016027      16.64012498       10      -0.00027330      -0.00017494       0.00087408
C        2.07334123       8.57882678      16.55859805       10      -0.00013470       0.00002344      -0.00091529
C        3.28569979       9.27991589      16.49785475       10      -0.00013929      -0.00008845      -0.00027611
C        9.34570031       0.17878697      16.39467613       10      -0.00003859      -0.00008674       0.00028423
C       10.55845944       0.88485782      16.40309431       10      -0.00021057      -0.00024971      -0.00016130
C        8.12169702       2.27234823      16.34674241       10       0.00055224       0.00002983       0.00017311
C        9.34575145       2.99620817      15.97568818       10       0.00010982      -0.00003069      -0.00047784
C        6.92471865       4.37726018      16.55188340       10      -0.00003394       0.00006588       0.00014124
C        8.14063843       5.07648940      16.54239610       10       0.00013011       0.00012225       0.00066485
C        5.71241963       6.47810266      16.64322705       10      -0.00019526      -0.00012264       0.00039526
C        6.92378899       7.17846646      16.61845151       10      -0.00006210      -0.00000113       0.00017339
C        4.49809788       8.57884068      16.55735501       10      -0.00004803      -0.00029120      -0.00038032
C        5.71009216       9.27875168      16.54715197       10      -0.00011931      -0.00015678       0.00040504
O        9.34583652       3.15764106      14.54038571       11       0.00005953       0.00035759       0.00024097
H        9.34601002       2.32511147      13.99951037       12       0.00020586       0.00020796       0.00027612
Na       3.28618207       5.17476621      13.97578465       20       0.00038611      -0.00042638      -0.00054978
