132
Lattice="12.12 0.0 0.0 -6.06 10.496227893867395 0.0 0.0 0.0 40.0" Properties=species:S:1:pos:R:3:tags:I:1:forces:R:3 energy=-1211.2750715845657 stress="0.0029761039289134747 3.845332640505872e-06 -5.211104889965534e-07 3.845332640505872e-06 0.002980542921650813 3.444352437821254e-07 -5.211104889965534e-07 3.444352437821254e-07 0.0025691981009395865" pbc="T T F"
C       -0.20867681       0.01948500      10.21048591        2       0.00001534      -0.00008284      -0.00006970
Ti      -0.21188838       1.77125307      11.51294654        0      -0.00017100      -0.00008359       0.00021890
Ti       1.30589533       0.89491928       8.92659498        0       0.00013864      -0.00009883      -0.00014624
O       -0.20960254       1.76990725       7.98269978        1      -0.00022357       0.00017359       0.00039188
O        1.30534297       0.89522336      12.44034197        3       0.00025365       0.00001936      -0.00029060
C       -1.72612134       2.64546159      10.21100844        2      -0.00012737       0.00018921      -0.00020280
Ti      -1.71855490       4.40312301      11.48039976        0      -0.00027901      -0.00016600       0.00036748
Ti      -0.20887083       3.51887897       8.91798070        0       0.00007941       0.00008948      -0.00010647
O       -1.72529072       4.39450185       7.98125288        1       0.00019752      -0.00008175       0.00014451
O       -0.19976695       3.52711889      12.40776609        3       0.00001722       0.00002590      -0.00010495
C       -3.23922757       5.26837436      10.21166218        2      -0.00018292       0.00008478       0.00006972
Ti      -3.24022453       7.01631148      11.51440606        0      -0.00005233      -0.00020670       0.00028502
Ti      -1.72514472       6.14523551       8.91928661        0      -0.00001394       0.00012632      -0.00006282
O       -3.24008974       7.01898006       7.98706688        1       0.00018347       0.00012675       0.00008033
O       -1.72645099       6.14351288      12.43738133        3      -0.00002323      -0.00011865      -0.00002314
C       -4.75537392       7.89280980      10.21403395        2      -0.00018500      -0.00005828      -0.00016511
Ti      -4.75461222       9.64172928      11.51346553        0      -0.00000633      -0.00009297       0.00017523
Ti      -3.24003067       8.76790476       8.92783965        0       0.00007589       0.00005898      -0.00013141
O       -4.75371301       9.64210354       7.98787163        1       0.00009451      -0.00004954      -0.00002503
O       -3.24042353       8.76704088      12.44325303        3      -0.00012204       0.00004613       0.00012991
C        2.81996948       0.02078579      10.21642884        2      -0.00005065      -0.00002640       0.00018713
Ti       2.82069905       1.77009706      11.51355798        0       0.00004122      -0.00007099      -0.00010640
Ti       4.33471677       0.89531927       8.92786793        0       0.00004061      -0.00005191      -0.00015245
O        2.82079917       1.76913771       7.98793127        1       0.00020784      -0.00012582      -0.00027955
O        4.33530197       0.89610085      12.44329627        3      -0.00004012       0.00014271      -0.00007898
C        1.30676133       2.64430916      10.21056881        2       0.00009901       0.00001962      -0.00035652
Ti       1.30526686       4.39308951      11.51012850        0      -0.00026761      -0.00004316       0.00019689
Ti       2.82093090       3.51946571       8.92499668        0       0.00003947       0.00007437      -0.00030665
O        1.30529691       4.39444655       7.98466731        1       0.00000701      -0.00003276      -0.00007617
O        2.82125705       3.52016100      12.44114021        3      -0.00005213      -0.00003299       0.00006831
C       -0.21043574       5.27127539      10.20895682        2       0.00009283       0.00015351      -0.00006295
Ti      -0.21165759       7.01922405      11.51430606        0      -0.00016635      -0.00009084       0.00008522
Ti       1.30563570       6.14415558       8.92444543        0      -0.00009103       0.00012166       0.00002366
O       -0.21005796       7.01948381       7.98605089        1      -0.00007215       0.00005842       0.00012223
O        1.30434848       6.14390163      12.43946576        3       0.00001122      -0.00001516      -0.00006570
C       -1.72482408       7.89332038      10.21510927        2      -0.00011122       0.00019137      -0.00021518
Ti      -1.72581461       9.64278585      11.51478061        0       0.00000567      -0.00005282       0.00038799
Ti      -0.21043399       8.76787080       8.92768009        0       0.00001988      -0.00007593      -0.00001577
O       -1.72545306       9.64256598       7.98934767        1       0.00011006      -0.00004538       0.00006669
O       -0.20948269       8.76734703      12.44418343        3      -0.00002288      -0.00007109       0.00005431
C        5.84975271       0.02043012      10.21510418        2      -0.00022063      -0.00004139      -0.00017009
Ti       5.85158078       1.77131678      11.51440292        0       0.00020248       0.00011297       0.00035755
Ti       7.36346334       0.89473278       8.91926873        0       0.00001039      -0.00012640      -0.00005739
O        5.84930261       1.76983047       7.98705441        1      -0.00006567      -0.00008742       0.00013575
O        7.36435484       0.89675704      12.43735075        3      -0.00011852      -0.00004980       0.00005527
C        4.33492316       2.64520742      10.21407245        2      -0.00007036       0.00012619      -0.00022891
Ti       4.33581264       4.39407580      11.51146561        0       0.00005708      -0.00005075      -0.00002242
Ti       5.84980726       3.51970565       8.92414751        0       0.00010779       0.00001482       0.00021311
O        4.33521910       4.39324418       7.98550926        1       0.00006032      -0.00005054       0.00021482
O        5.84951452       3.51902943      12.43908050        3      -0.00018788      -0.00010878      -0.00005536
C        2.82191245       5.27053759      10.21040625        2       0.00016824       0.00042291      -0.00012463
Ti       2.82014460       7.01818311      11.50944103        0      -0.00008691       0.00002295       0.00001805
Ti       4.33483956       6.14362779       8.92252517        0       0.00014849       0.00004663      -0.00020383
O        2.81959769       7.01843209       7.98439005        1       0.00011514       0.00013304       0.00017169
O        4.33510105       6.14352639      12.43892602        3      -0.00017001       0.00007438      -0.00014793
C        1.30515379       7.89283878      10.21319057        2       0.00018682       0.00003074       0.00018135
Ti       1.30333608       9.64327860      11.51430127        0       0.00006642       0.00024825       0.00007331
Ti       2.81977860       8.76673890       8.92441606        0      -0.00001904       0.00009859       0.00001097
O        1.30389239       9.64173926       7.98601664        1      -0.00014611      -0.00007565       0.00030330
O        2.81939829       8.76806528      12.43944334        3      -0.00000054      -0.00022273      -0.00008287
C        8.87770586       0.01993653      10.20891194        2      -0.00006263      -0.00013169      -0.00025975
Ti       8.87552365       1.76011757      11.48035522        0      -0.00023492       0.00018319       0.00047642
Ti      10.39610848       0.89474339       8.91788400        0      -0.00009390      -0.00001706       0.00025883
O        8.87958029       1.77022574       7.98123427        1       0.00015317      -0.00006188       0.00001242
O       10.39351424       0.88278124      12.40769345        3       0.00015328      -0.00010703      -0.00000274
C        7.36581359       2.64441619      10.21163747        2      -0.00005310       0.00001281       0.00020751
Ti       7.36073699       4.39667422      11.50023921        0       0.00033119      -0.00025982       0.00042260
Ti       8.87983252       3.51959402       8.92261311        0       0.00013499      -0.00005508       0.00007371
O        7.36534306       4.39398576       7.98593914        1       0.00023918      -0.00015846       0.00030188
O        8.86839489       3.52621626      12.45205567        3      -0.00000272       0.00005745      -0.00020124
C        5.84923553       5.26931292      10.21194049        2      -0.00009368       0.00009970      -0.00025654
Ti       5.85049991       7.01763344      11.51144750        0       0.00017413      -0.00004757      -0.00002891
Ti       7.36472150       6.14360290       8.92417211        0       0.00007955       0.00005506       0.00006634
O        5.85092772       7.01848451       7.98551405        1      -0.00001117       0.00003144      -0.00000172
O        7.36516417       6.14426001      12.43907421        3      -0.00002011       0.00007553      -0.00006240
C        4.33450074       7.89044834      10.21035937        2      -0.00015847      -0.00038738      -0.00006993
Ti       4.33609338       9.64265690      11.51006034        0      -0.00010592       0.00013316       0.00021683
Ti       5.85048871       8.76681033       8.92490936        0       0.00005066      -0.00008696      -0.00012947
O        4.33491869       9.64187025       7.98455956        1      -0.00004628       0.00026517       0.00036025
O        5.85004389       8.76623881      12.44107978        3       0.00010755      -0.00009833       0.00010552
C        0.38306233       0.02923856      16.56845521       10      -0.00001951       0.00010435       0.00001878
C        1.59375880       0.72866974      16.58790400       10       0.00017417      -0.00014355       0.00027251
C       -0.81985930       2.12216700      16.42865955       10      -0.00008661       0.00003285      -0.00027159
C        0.37540550       2.82512064      16.50294018       10      -0.00001991       0.00004336      -0.00002375
C       -2.04503360       4.24259370      16.33573482       10      -0.00002310      -0.00015443       0.00053688
C       -0.83890185       4.92456057      16.44162130       10       0.00000666      -0.00013082       0.00025346
C       -3.25489853       6.32989000      16.47659393       10       0.00025719       0.00016789      -0.00007496
C       -2.04446155       7.02870396      16.51964307       10       0.00028799      -0.00012914      -0.00020568
C       -4.46810200       8.42618304      16.54582405       10      -0.00040368       0.00004311      -0.00011911
C       -3.25604396       9.12617920      16.56953630       10      -0.00018478      -0.00026037       0.00020074
C        2.80529212       0.02918837      16.58722982       10       0.00026260      -0.00023141       0.00028779
C        4.01640142       0.72995988      16.56959980       10       0.00006238       0.00020309      -0.00015373
C        1.59413371       2.12687743      16.56839411       10      -0.00020269      -0.00012881      -0.00002720
C        2.80373218       2.82864340      16.54687360       10      -0.00045288      -0.00004844       0.00002973
C        0.37881866       4.22766002      16.47147671       10       0.00009344       0.00019604      -0.00032613
C        1.58913904       4.92679549      16.50293480       10       0.00026260       0.00005057       0.00011957
C       -0.83388771       6.32928021      16.50692246       10       0.00019818      -0.00001012      -0.00055878
C        0.37880823       7.02672000      16.52651427       10       0.00024099      -0.00006200      -0.00018363
C       -2.04392805       8.42763407      16.55725553       10      -0.00005748      -0.00011445      -0.00000964
C       -0.83180441       9.12654708      16.56073803       10       0.00001195       0.00001376      -0.00023999
C        5.22741481       0.02950514      16.55732674       10       0.00010701       0.00001461       0.00025272
C        6.43866623       0.72942220      16.51983643       10       0.00019039      -0.00016060      -0.00001875
C        4.01658376       2.12962670      16.54583986       10      -0.00013063       0.00033600      -0.00009578
C        5.22890344       2.82844804      16.49493948       10      -0.00007990       0.00007782       0.00003642
C        2.80310793       4.22783918      16.51455027       10       0.00008428       0.00008394       0.00015416
C        4.01548718       4.92763607      16.49336984       10      -0.00006259       0.00014259      -0.00008683
C        1.59117680       6.32763348      16.50857958       10      -0.00007137       0.00003277      -0.00001471
C        2.80338983       7.02775135      16.50796872       10      -0.00016780       0.00025286      -0.00008657
C        0.38016897       8.42681401      16.54419111       10      -0.00007745      -0.00009732      -0.00014272
C        1.59201248       9.12802574      16.52662067       10       0.00013067      -0.00000736       0.00001038
C        7.64967278       0.03074752      16.50715884       10       0.00005379      -0.00007280      -0.00024983
C        8.86368910       0.73746425      16.44198126       10      -0.00001805      -0.00010299      -0.00036752
C        6.43864057       2.12709752      16.47682814       10      -0.00004381      -0.00009497      -0.00039994
C        7.65606042       2.82581730      16.38932850       10       0.00004013       0.00003116      -0.00013152
C        5.22791228       4.22790269      16.46788119       10       0.00003022       0.00012683      -0.00003705
C        6.44152738       4.92728023      16.43086212       10       0.00007121       0.00005604       0.00027175
C        4.01571314       6.32781832      16.49110115       10      -0.00016583       0.00020897       0.00059969
C        5.22819120       7.02811251      16.49347872       10      -0.00004180      -0.00003063      -0.00027279
C        2.80361657       8.42761952      16.50870552       10       0.00002614       0.00012664      -0.00005976
C        4.01576052       9.12980867      16.50313491       10      -0.00005720      -0.00011571       0.00012430
C       10.07607294       0.03132204      16.47170585       10       0.00002200      -0.00003378      -0.00001935
C       11.28900047       0.73556062      16.50304718       10      -0.00012558      -0.00003428       0.00009756
C        8.85122989       2.12299217      16.33605294       10      -0.00001217       0.00004323      -0.00033720
C       10.08832407       2.82177334      15.96858763       10       0.00022165      -0.00029769      -0.00009848
C        7.65131700       4.22881315      16.37872950       10      -0.00007816       0.00000542      -0.00012113
C        8.86871444       4.92621390      16.38910563       10      -0.00001611       0.00003313      -0.00007200
C        6.44038925       6.32799150      16.46790621       10       0.00001447      -0.00000194      -0.00024053
C        7.65284485       7.02687311      16.49487464       10       0.00010489      -0.00009898       0.00000359
C        5.22805627       8.42796310      16.51472736       10       0.00007624       0.00002529      -0.00012252
C        6.44010802       9.12703663      16.54697441       10      -0.00025391       0.00021728       0.00001309
O       10.22563234       2.74222350      14.53855852       11       0.00047752      -0.00029155       0.00008877
H        9.50295195       3.15978609      14.00052131       12      -0.00070370       0.00023649      -0.00034494
