133
Lattice="12.12 0.0 0.0 -6.06 10.496227893867395 0.0 0.0 0.0 40.0" Properties=species:S:1:pos:R:3:tags:I:1:forces:R:3 energy=-1213.3732313800106 stress="0.0030771007467156304 7.66116832512506e-06 -2.085787191179185e-06 7.66116832512506e-06 0.0030593102047931065 -1.1695547945941066e-05 -2.085787191179185e-06 -1.1695547945941066e-05 0.002396343100510735" pbc="T T F"
C       -0.40401828       0.62463689      10.10806019        2      -0.00010740      -0.00011984      -0.00007220
Ti      -0.40405907       2.37190487       8.81628463        0      -0.00040185      -0.00032725       0.00027357
Ti       1.11198439       1.49709490      11.40228010        0       0.00010635      -0.00027507      -0.00004803
O       -0.40449791       2.38649355      12.33996520        3       0.00005087      -0.00013978       0.00026845
O        1.11071737       1.49892817       7.87216290        1      -0.00030605       0.00015884       0.00014146
C       -1.91532824       3.24765858      10.09522074        2      -0.00001158      -0.00011006      -0.00026620
Ti      -1.92044944       4.99499692       8.78526931        0      -0.00003084       0.00017468      -0.00014850
Ti      -0.40371335       4.12757290      11.39756366        0      -0.00032531      -0.00007292       0.00008429
O       -1.94162516       5.00664294      12.32071624        3       0.00009439      -0.00017099      -0.00031553
O       -0.40414703       4.11296629       7.85848427        1       0.00029493      -0.00018115      -0.00016492
C       -3.43345295       5.86953327      10.06076491        2       0.00016840       0.00021415      -0.00038941
Ti      -3.43483118       7.62144431       8.78123561        0       0.00017178      -0.00015428      -0.00000740
Ti      -1.89984974       6.75922837      11.32046169        0       0.00008620       0.00013118      -0.00003237
O       -3.45021275       7.58703306      12.29606465        3       0.00015352      -0.00011586      -0.00013249
O       -1.91649638       6.74755767       7.84269554        1      -0.00007472       0.00015215      -0.00021595
C       -4.95069074       8.49820038      10.08274377        2       0.00025608       0.00004901      -0.00030784
Ti      -4.94827082      10.24679933       8.81523683        0       0.00014828       0.00000076       0.00030598
Ti      -3.43337792       9.36317138      11.39658018        0      -0.00008051       0.00017983      -0.00030696
O       -4.94968292      10.23825025      12.33493080        3      -0.00000888      -0.00013309       0.00005198
O       -3.43354087       9.37923316       7.86548229        1      -0.00016612       0.00010379       0.00004896
C        2.62532845       0.62187836      10.10599589        2      -0.00017158       0.00014312      -0.00022828
Ti       2.62571525       2.36652086       8.80161082        0      -0.00024977      -0.00000334       0.00001447
Ti       4.14021028       1.49877373      11.39882609        0      -0.00005250       0.00018450      -0.00005648
O        2.62558412       2.38538958      12.32773940        3      -0.00006790       0.00005690       0.00011894
O        4.14108107       1.49836422       7.87184012        1       0.00005981       0.00000075      -0.00014499
C        1.10794831       3.24876215      10.09525415        2      -0.00012791      -0.00021337       0.00040993
Ti       1.11279388       4.99449492       8.78390941        0      -0.00007416       0.00023016       0.00015779
Ti       2.62661958       4.10446828      11.31890853        0       0.00007608       0.00007861       0.00016416
O        1.13380120       5.01381698      12.33622374        3       0.00004837      -0.00013357       0.00030704
O        2.62570979       4.11153940       7.85113112        1      -0.00013976      -0.00030790       0.00017347
C       -0.40417064       5.86814484      10.07436855        2      -0.00003632      -0.00011708      -0.00024751
Ti      -0.40322984       7.62733690       8.77642314        0       0.00037312      -0.00023211      -0.00010462
Ti       1.09815330       6.75646343      11.30724045        0       0.00039827      -0.00034838       0.00016389
O       -0.38753120       7.61158235      12.27370637        3       0.00009807       0.00006684      -0.00011288
O        1.10886367       6.74730973       7.84359309        1       0.00011965      -0.00011450       0.00009407
C       -1.91995139       8.49694203      10.08738600        2       0.00015475       0.00031710       0.00027048
Ti      -1.91956832      10.24809981       8.81446323        0      -0.00001141       0.00006486      -0.00003301
Ti      -0.40356498       9.36888806      11.39794193        0       0.00019407      -0.00027249      -0.00016059
O       -1.92002034      10.24185331      12.32515585        3      -0.00003661      -0.00003379      -0.00014918
O       -0.40378535       9.37827080       7.86496253        1       0.00009932       0.00021205      -0.00012599
C        5.65703834       0.62610741      10.10561928        2       0.00028345       0.00008658      -0.00003887
Ti       5.65671937       2.37202357       8.81514768        0      -0.00029295      -0.00026563       0.00003543
Ti       7.17138748       1.49696112      11.40286609        0      -0.00016384      -0.00026944       0.00014797
O        5.65612040       2.38587851      12.33590001        3      -0.00004740       0.00022415       0.00032621
O        7.17205884       1.49920718       7.87256710        1      -0.00021396      -0.00020843      -0.00023767
C        4.14525704       3.25020243      10.09547818        2       0.00027164       0.00002923       0.00059738
Ti       4.14047855       4.99533650       8.78497791        0      -0.00019453       0.00026325       0.00025960
Ti       5.65506798       4.12811657      11.39762518        0      -0.00001457      -0.00006327      -0.00022575
O        4.11688479       5.01704311      12.34277525        3       0.00034889      -0.00001210       0.00021378
O        5.65682078       4.11301684       7.85816879        1      -0.00024465       0.00015203      -0.00022857
C        2.62858654       5.86941744      10.06027136        2       0.00003831      -0.00011036      -0.00026359
Ti       2.62706496       7.62253917       8.78338551        0      -0.00025612      -0.00010220       0.00017038
Ti       4.15533486       6.75478268      11.31438171        0       0.00026569       0.00017984       0.00006525
O        2.62747165       7.58413752      12.33805125        3       0.00001824       0.00019384       0.00003223
O        4.14354217       6.74745924       7.84432266        1      -0.00000366       0.00001173       0.00002737
C        1.11668448       8.49861747      10.08281301        2       0.00009789       0.00037697      -0.00040724
Ti       1.11259738      10.24715356       8.81530490        0      -0.00019737       0.00031588       0.00015078
Ti       2.62711652       9.36348561      11.39429587        0      -0.00003767      -0.00016929       0.00027641
O        1.11526748      10.23949868      12.33340540        3       0.00001451       0.00000911       0.00008313
O        2.62743442       9.38021643       7.86555554        1      -0.00001107       0.00004320       0.00011857
C        8.68655575       0.62080779      10.10866901        2      -0.00012112      -0.00000444       0.00005788
Ti       8.68631169       2.36665356       8.80377801        0      -0.00007701       0.00010143       0.00003208
Ti      10.20030475       1.49594430      11.40305185        0      -0.00006050       0.00023391       0.00001041
O        8.68662001       2.38543832      12.33104339        3      -0.00037668       0.00010915       0.00001033
O       10.20077890       1.49850328       7.87282243        1      -0.00000700      -0.00008668       0.00000296
C        7.16603618       3.24919874      10.09623455        2       0.00014147       0.00005568       0.00023927
Ti       7.17123330       4.99433153       8.78587228        0       0.00023798       0.00032022      -0.00037470
Ti       8.68560357       4.10512242      11.32168105        0       0.00067532      -0.00012992      -0.00054967
O        7.19409176       5.01705483      12.33822194        3      -0.00009500      -0.00007082       0.00000493
O        8.68597853       4.11117978       7.85227711        1      -0.00008078       0.00023727      -0.00037605
C        5.65344294       5.86710833      10.07418973        2      -0.00034924      -0.00026727      -0.00005098
Ti       5.65563974       7.62755042       8.77952736        0       0.00013020      -0.00025148       0.00004710
Ti       7.15472485       6.75563799      11.30962739        0       0.00031685       0.00017293      -0.00015441
O        5.65508849       7.60809799      12.31031109        3      -0.00000798       0.00010047       0.00008219
O        7.16892407       6.74697498       7.84403544        1       0.00020613      -0.00001649      -0.00017366
C        4.13965290       8.49654394      10.08742131        2      -0.00003359      -0.00016655       0.00040488
Ti       4.14041232      10.24727474       8.81499692        0      -0.00045184       0.00022086       0.00043683
Ti       5.65511689       9.36842277      11.39499286        0       0.00010149      -0.00019803      -0.00018382
O        4.14094848      10.23723537      12.33744984        3      -0.00014210      -0.00018553      -0.00004497
O        5.65505287       9.37872164       7.86520410        1      -0.00032441       0.00011269      -0.00021098
C        0.71686256      -0.94471225      16.70002706       10      -0.00010822      -0.00009071       0.00012484
C        1.92683930      -0.24709824      16.62833521       10      -0.00008515      -0.00000937      -0.00009938
C       -0.49430271       1.15030493      16.70081542       10      -0.00037863       0.00015354       0.00017900
C        0.71811382       1.84884891      16.68077757       10       0.00011985      -0.00049421      -0.00004609
C       -1.70633678       3.24488756      16.77147778       10       0.00031528       0.00036582      -0.00032079
C       -0.49462840       3.94437629      16.76611320       10       0.00042827       0.00014268       0.00023149
C       -2.91197948       5.34825543      16.74953826       10      -0.00023018      -0.00013207       0.00016564
C       -1.70496850       6.03103209      16.64930906       10      -0.00037298      -0.00004587       0.00003444
C       -4.12409814       7.45655989      16.69889924       10       0.00026373       0.00008001      -0.00034899
C       -2.93357637       8.15670419      16.54789088       10       0.00017867       0.00011741      -0.00045175
C        3.14031162      -0.95241203      16.54672265       10      -0.00026930       0.00007426      -0.00070483
C        4.35227705      -0.24859082      16.47724297       10      -0.00022520      -0.00027575       0.00038990
C        1.92951417       1.15020272      16.61572242       10       0.00039596       0.00009716       0.00033890
C        3.14147550       1.84907958      16.57464565       10       0.00038257       0.00030836       0.00006865
C        0.71721510       3.24793255      16.70957933       10       0.00011193      -0.00053901      -0.00003340
C        1.92866858       3.94777599      16.68006758       10      -0.00039119      -0.00001099      -0.00032514
C       -0.49919547       5.34946256      16.71067654       10      -0.00014734       0.00015706       0.00021137
C        0.71406997       6.05038010      16.65638927       10      -0.00019160       0.00003651       0.00011263
C       -1.72091508       7.41807758      16.13576495       10       0.00019597      -0.00000003      -0.00013532
C       -0.48329956       8.15376517      16.46484951       10       0.00020573      -0.00020466       0.00017056
C        5.56515568      -0.95441539      16.47963287       10      -0.00012942      -0.00014983      -0.00006863
C        6.77932164      -0.24785235      16.54413629       10       0.00003137      -0.00000558      -0.00001016
C        4.35354579       1.14823488      16.51629123       10       0.00012688      -0.00016804       0.00009854
C        5.56580704       1.84974337      16.55375436       10      -0.00003170      -0.00014021       0.00009307
C        3.14100779       3.24851514      16.62813689       10      -0.00020509       0.00050250      -0.00021914
C        4.35403900       3.94919749      16.65275117       10      -0.00017294       0.00016991       0.00006577
C        1.92491438       5.35028244      16.69348735       10      -0.00006800       0.00000620      -0.00024542
C        3.14108958       6.05126328      16.71244946       10       0.00020206      -0.00008020      -0.00040942
C        0.70885577       7.45355750      16.58805770       10      -0.00001626      -0.00004265       0.00026276
C        1.92872546       8.15302205      16.63681075       10      -0.00010863      -0.00002866       0.00028404
C        7.98921494      -0.94547527      16.60945011       10      -0.00005238      -0.00007528       0.00027755
C        9.20131553      -0.24756283      16.65762721       10       0.00022924      -0.00012006      -0.00025545
C        6.77713126       1.14965001      16.56780393       10      -0.00005294       0.00010892       0.00014765
C        7.98793154       1.84855664      16.65079524       10      -0.00004769      -0.00010781      -0.00041561
C        5.56631385       3.24801686      16.63270388       10      -0.00015607      -0.00006984       0.00033819
C        6.77755473       3.94847992      16.69883790       10      -0.00006780      -0.00018014       0.00021895
C        4.35447204       5.34913571      16.71645699       10       0.00036278       0.00004247      -0.00027829
C        5.56617911       6.05073840      16.75035714       10       0.00022754      -0.00010132      -0.00019760
C        3.13883771       7.45303203      16.70424252       10      -0.00016927      -0.00004193      -0.00001104
C        4.35259567       8.15084725      16.73064790       10      -0.00022027       0.00018512       0.00049519
C       10.41267806      -0.94634881      16.70268384       10       0.00032655       0.00003369      -0.00017511
C       11.62441937      -0.24718626      16.70200219       10       0.00020192       0.00025504       0.00006025
C        9.20049999       1.15039178      16.67503133       10      -0.00013713      -0.00013946      -0.00036931
C       10.41302179       1.84707908      16.72305277       10      -0.00033176       0.00045496      -0.00011277
C        7.98922480       3.24696391      16.71198809       10       0.00020570      -0.00010180       0.00003006
C        9.20176586       3.94229247      16.77790752       10       0.00019233       0.00005740       0.00037357
C        6.77974520       5.35007067      16.74349898       10       0.00034069      -0.00003367       0.00036660
C        7.99110006       6.05114343      16.73423070       10       0.00009690       0.00003256       0.00024250
C        5.56598163       7.45158688      16.76106135       10      -0.00028696      -0.00007357       0.00010751
C        6.77679356       8.15415511      16.74408447       10      -0.00013222      -0.00027666      -0.00010413
O       -1.81540777       7.27349039      14.77603933       11      -0.00023913       0.00046505       0.00003969
Na      -3.39180226       5.90743165      13.91949899        0      -0.00004411      -0.00003104      -0.00003522
Na       2.59970969       5.86970186      13.92723172        0      -0.00008649       0.00000880       0.00025365
