132
Lattice="12.12 0.0 0.0 -6.06 10.496227893867395 0.0 0.0 0.0 40.0" Properties=species:S:1:pos:R:3:tags:I:1:forces:R:3 stress="0.003037329260886395 -1.181317582002426e-05 -9.771363771241391e-06 -1.181317582002426e-05 0.003023325718732729 5.5118604682980996e-06 -9.771363771241391e-06 5.5118604682980996e-06 0.002445044781007207" energy=-1209.5510232705144 pbc="T T F"
C        0.02096440       0.01311694      10.21212760        2      -0.00012224       0.00002013       0.00018100
Ti       0.02192036       1.76334228       8.92130508        0       0.00022921       0.00019064       0.00022902
Ti       1.53427050       0.88984451      11.51310025        0       0.00027838       0.00021616      -0.00040676
O        0.02079675       1.76227010      12.43153564        3      -0.00012627       0.00017554       0.00012375
O        1.53593544       0.88877653       7.98734485        1      -0.00019870       0.00004449       0.00007254
C       -1.49588527       2.63782915      10.21319232        2      -0.00027871      -0.00030333      -0.00005400
Ti      -1.49240384       4.38822463       8.91633189        0      -0.00006092       0.00044633       0.00014414
Ti       0.01949754       3.51193242      11.51207123        0      -0.00000620      -0.00016858      -0.00001763
O       -1.48253129       4.40666158      12.39254796        3       0.00029943      -0.00004758       0.00045337
O        0.02074311       3.51226391       7.98388213        1      -0.00007967       0.00008585      -0.00025665
C       -3.01113452       5.26177095      10.21157224        2      -0.00036203      -0.00023247      -0.00031567
Ti      -3.00957325       7.01350696       8.92632951        0      -0.00006191       0.00045116      -0.00033729
Ti      -1.49156375       6.13980564      11.50771554        0       0.00013046       0.00009131      -0.00046961
O       -3.00916088       7.01457918      12.44077084        3       0.00002417       0.00035181       0.00017132
O       -1.49539114       6.13753488       7.98436566        1      -0.00029650       0.00003811       0.00012632
C       -4.52376565       7.88717118      10.21406947        2      -0.00036091      -0.00001268       0.00022432
Ti      -4.52399323       9.63525269       8.92591900        0       0.00032299      -0.00027336      -0.00003799
Ti      -3.01064002       8.76299152      11.51298287        0       0.00004591      -0.00000182      -0.00029451
O       -4.52434145       9.63606662      12.44227886        3       0.00031221      -0.00020270       0.00045004
O       -3.00959734       8.76127316       7.98641494        1       0.00010775       0.00003279       0.00047768
C        3.05113573       0.01366173      10.21392533        2       0.00006150       0.00030494      -0.00002309
Ti       3.05141771       1.76318098       8.92741543        0      -0.00000335       0.00005307       0.00003457
Ti       4.56460995       0.88945853      11.51606559        0      -0.00024785      -0.00003691      -0.00002694
O        3.04853754       1.76187410      12.44425545        3      -0.00004338      -0.00011380       0.00021563
O        4.56657309       0.88999995       7.98856585        1      -0.00004336      -0.00006219       0.00009925
C        1.53656560       2.63755477      10.21308787        2      -0.00018979       0.00011561       0.00005502
Ti       1.53661141       4.38837018       8.92645997        0      -0.00011740       0.00017194       0.00013435
Ti       3.05003343       3.51227736      11.51539938        0      -0.00035910       0.00020322      -0.00007606
O        1.53768117       4.38881134      12.43959129        3      -0.00025259       0.00005486       0.00040445
O        3.05209095       3.51288058       7.98935471        1       0.00001056       0.00022561      -0.00009301
C        0.02461804       5.26549282      10.20654890        2      -0.00011100       0.00004149       0.00007857
Ti       0.02173560       7.01230098       8.92415130        0      -0.00019877       0.00004457       0.00011534
Ti       1.53770154       6.13802953      11.51190969        0       0.00006135      -0.00000000       0.00012160
O        0.02200481       7.01311446      12.44131513        3      -0.00013458       0.00003285      -0.00015312
O        1.53775555       6.13757703       7.98680120        1      -0.00006143      -0.00017225      -0.00028549
C       -1.49450954       7.88990482      10.21068966        2       0.00041389       0.00003200       0.00020333
Ti      -1.49457693       9.63552294       8.92570718        0      -0.00025415      -0.00021187      -0.00014675
Ti       0.02140844       8.76197462      11.51322810        0      -0.00013715      -0.00013233      -0.00031513
O       -1.49486455       9.63506884      12.44363198        3      -0.00005240      -0.00025926       0.00012042
O        0.02123614       8.76217213       7.98674256        1      -0.00001159       0.00026138       0.00027890
C        6.07975061       0.01317278      10.21492417        2       0.00029941       0.00031166      -0.00006711
Ti       6.08027873       1.76249110       8.92754154        0      -0.00029451       0.00036418       0.00004214
Ti       7.59160994       0.88302511      11.50207292        0       0.00013932       0.00004457      -0.00021024
O        6.08019562       1.76219191      12.44146340        3      -0.00010771      -0.00002082       0.00041928
O        7.59567801       0.88990631       7.98864929        1       0.00025286       0.00009428       0.00026457
C        4.56537314       2.63684569      10.21671585        2       0.00019296       0.00014411      -0.00000044
Ti       4.56516162       4.38746041       8.92913361        0      -0.00056913       0.00006197       0.00043625
Ti       6.08222029       3.51188708      11.51527777        0      -0.00002983       0.00016356      -0.00000211
O        4.56457927       4.38745277      12.44231068        3       0.00008017      -0.00007141       0.00009709
O        6.08091782       3.51203945       7.98926996        1      -0.00046843       0.00031200       0.00001081
C        3.05114490       5.26196744      10.21628186        2       0.00001193       0.00001269      -0.00032560
Ti       3.05130419       7.01123223       8.92702803        0      -0.00032460      -0.00035006       0.00013484
Ti       4.56544948       6.13683549      11.51497704        0      -0.00036774       0.00006283      -0.00001366
O        3.05082735       7.01203659      12.44268567        3      -0.00027753       0.00001558       0.00029062
O        4.56594609       6.13606332       7.98982468        1      -0.00013440      -0.00036564       0.00007825
C        1.53585478       7.88646339      10.21436467        2      -0.00000522       0.00023147      -0.00010183
Ti       1.53616645       9.63534756       8.92549968        0      -0.00023877      -0.00008156       0.00011345
Ti       3.05203918       8.76150264      11.51483710        0       0.00024074      -0.00021514      -0.00001785
O        1.53660281       9.63220434      12.44197507        3       0.00025699       0.00005381       0.00031107
O        3.05060483       8.76040587       7.98770227        1      -0.00010202       0.00005707      -0.00026571
C        9.11097179       0.01246030      10.21181313        2      -0.00002715       0.00043079      -0.00019171
Ti       9.11085108       1.76328600       8.92670883        0       0.00034205      -0.00014366       0.00062872
Ti      10.63242658       0.88123724      11.48846466        0      -0.00004959       0.00007698      -0.00065724
O        9.10659995       1.73963154      12.44830414        3       0.00034179      -0.00013896       0.00021361
O       10.62510391       0.88896030       7.98508808        1      -0.00078667       0.00011020      -0.00015871
C        7.59894878       2.63896082      10.21662616        2      -0.00002065      -0.00001805      -0.00040334
Ti       7.59395514       4.38857244       8.91981978        0      -0.00028186       0.00006176      -0.00006265
Ti       9.10757465       3.52813861      11.48124402        0       0.00020047       0.00010239      -0.00054896
O        7.59308545       4.38916730      12.43184645        3       0.00021365       0.00010559       0.00029535
O        9.10999865       3.51229864       7.98148759        1      -0.00009863      -0.00048837      -0.00018725
C        6.08046274       5.26274475      10.21567755        2      -0.00028253      -0.00014638       0.00003448
Ti       6.08040371       7.01174400       8.92860176        0      -0.00024920      -0.00014132      -0.00009028
Ti       7.59396263       6.13635531      11.51802170        0       0.00017297       0.00036899      -0.00005982
O        6.08162874       7.01279688      12.44448776        3      -0.00011204       0.00001487       0.00017688
O        7.59532553       6.13689521       7.98749943        1      -0.00010936       0.00026268       0.00009234
C        4.56640607       7.88570585      10.21547747        2      -0.00002824      -0.00008712       0.00011481
Ti       4.56526767       9.63448730       8.92172441        0      -0.00008271      -0.00000541       0.00023688
Ti       6.07977549       8.76078964      11.51408118        0       0.00030438      -0.00010315      -0.00044206
O        4.56628483       9.63289157      12.43849981        3      -0.00016950       0.00041988       0.00004294
O        6.08069338       8.76022738       7.98776998        1      -0.00003396      -0.00000649      -0.00001315
C        0.02288440       0.05141850      16.47410089       10       0.00010217      -0.00009463       0.00060354
C        1.23317044       0.75056825      16.51438615       10       0.00001081      -0.00005443       0.00033510
C       -1.18085171       2.14354390      16.36327120       10       0.00028396      -0.00001891       0.00083240
C        0.01416289       2.84738087      16.46035466       10       0.00010902      -0.00001257       0.00014422
C       -2.40525271       4.26456371      16.44477464       10       0.00004491       0.00002079       0.00015299
C       -1.19806151       4.94806140      16.52137611       10       0.00012234      -0.00004279      -0.00007237
C       -3.61581879       6.35331160      16.57103610       10      -0.00017201      -0.00010204      -0.00096288
C       -2.40459656       7.05172624      16.59955832       10       0.00012372      -0.00006011      -0.00002741
C       -4.82844335       8.44951731      16.53290035       10      -0.00005960       0.00007398      -0.00051807
C       -3.61620439       9.14898336      16.56368586       10       0.00021257      -0.00003052      -0.00003287
C        2.44505559       0.05166633      16.54666442       10       0.00000262       0.00010533      -0.00001684
C        3.65611109       0.75226034      16.54900746       10       0.00014045       0.00010226       0.00004206
C        1.23284589       2.14881637      16.50687997       10      -0.00004049      -0.00012059       0.00018311
C        2.44290301       2.85071668      16.51343678       10       0.00015018      -0.00006264       0.00074869
C        0.01863044       4.25028798      16.48765682       10       0.00022397      -0.00011444       0.00033681
C        1.22918147       4.94923183      16.50378475       10       0.00009412      -0.00006129       0.00022412
C       -1.19346505       6.35267036      16.58506708       10       0.00017677      -0.00023645      -0.00017541
C        0.01910687       7.04955042      16.55846143       10      -0.00010250      -0.00024608      -0.00039507
C       -2.40389488       8.45063526      16.59279499       10       0.00011679      -0.00012177      -0.00057309
C       -1.19161421       9.14927136      16.57687359       10       0.00020442      -0.00017372      -0.00093073
C        4.86728572       0.05190610      16.55417242       10       0.00016636      -0.00010303      -0.00010693
C        6.07876260       0.75114698      16.51470469       10       0.00025722      -0.00019591      -0.00059257
C        3.65586083       2.15173906      16.52498284       10      -0.00007377      -0.00005645      -0.00026100
C        4.86851710       2.85094556      16.50225370       10      -0.00004745      -0.00001928      -0.00003234
C        2.44305785       4.25029535      16.49742665       10      -0.00012561       0.00000396      -0.00024667
C        3.65518693       4.95018329      16.48642937       10       0.00020505      -0.00020367       0.00021362
C        1.23040917       6.34987521      16.51719773       10       0.00021379       0.00003957       0.00018821
C        2.44251118       7.04983339      16.48557725       10       0.00014927      -0.00003591       0.00002615
C        0.02053466       8.44943855      16.55660556       10       0.00013153      -0.00014496      -0.00014755
C        1.23171140       9.15019514      16.50102161       10       0.00003674      -0.00014556       0.00006269
C        7.28924337       0.05229694      16.48103882       10       0.00006468      -0.00001484      -0.00057616
C        8.50282464       0.75758190      16.39681297       10       0.00030653      -0.00007146       0.00048221
C        6.07858861       2.14929449      16.49015937       10       0.00012055      -0.00015625       0.00041601
C        7.29732741       2.84777022      16.42968037       10       0.00021184      -0.00012487      -0.00032817
C        4.86767348       4.25054972      16.48236240       10      -0.00000317      -0.00004837      -0.00013231
C        6.08201686       4.94940725      16.47908196       10      -0.00004354      -0.00022963      -0.00025731
C        3.65511314       6.34997335      16.47305536       10      -0.00001950       0.00019418       0.00028815
C        4.86798706       7.04997918      16.47083948       10       0.00014403      -0.00020489      -0.00036924
C        2.44286549       8.44967019      16.46674309       10       0.00003920      -0.00003705      -0.00008207
C        3.65518064       9.15105974      16.42788185       10       0.00005431      -0.00000997       0.00048941
C        9.71531785       0.05188423      16.38615139       10       0.00005765       0.00001685      -0.00031993
C       10.92836394       0.75647901      16.40462396       10      -0.00006119      -0.00016979       0.00031005
C        8.49072770       2.14407218      16.33587916       10       0.00006268       0.00033366      -0.00010756
C        9.71725129       2.86543623      15.98786168       10       0.00038203      -0.00003543       0.00029540
C        7.29277131       4.25090864      16.45759368       10       0.00007981      -0.00004963      -0.00010819
C        8.50883025       4.94876867      16.50643994       10       0.00021462       0.00004793      -0.00020165
C        6.08031233       6.35023767      16.49316336       10      -0.00008481      -0.00007557      -0.00000309
C        7.29195348       7.04997822      16.53533611       10       0.00006451      -0.00012632       0.00007452
C        4.86787238       8.44966837      16.45302274       10       0.00005425      -0.00000483       0.00049997
C        6.07990125       9.14960556      16.48202316       10       0.00003351      -0.00013231      -0.00042296
O        9.80309993       3.02391963      14.55729242       11      -0.00002192       0.00019249      -0.00047958
H        9.47174720       2.27394951      13.99420228       12      -0.00023698      -0.00013712       0.00011071
