131
Lattice="12.12 0.0 0.0 -6.06 10.496227893867395 0.0 0.0 0.0 40.0" Properties=species:S:1:pos:R:3:tags:I:1:forces:R:3 stress="0.0029547956441577723 -4.406631732408624e-08 5.232023601562217e-08 -4.406631732408624e-08 0.0029547120411883036 -4.229373281860605e-08 5.232023601562217e-08 -4.229373281860605e-08 0.002544730771740351" energy=-1206.1795555224257 pbc="T T F"
C       -0.33724481       0.23122389      10.19591606        2       0.00030621      -0.00013642       0.00027893
Ti      -0.33731311       1.98026202       8.90722589        0       0.00001047      -0.00016104       0.00020258
Ti       1.17830100       1.10644624      11.49369513        0       0.00007745      -0.00006373      -0.00014629
O       -0.33671247       1.98056619      12.42324608        3       0.00000988       0.00005271      -0.00004700
O        1.17651538       1.10551180       7.96751229        1       0.00046017       0.00007116      -0.00005458
C       -1.85196997       2.85487089      10.19595313        2      -0.00002947      -0.00029106      -0.00003542
Ti      -1.85196494       4.60444109       8.90696658        0      -0.00003564      -0.00007962       0.00014466
Ti      -0.33619070       3.72967540      11.49376522        0      -0.00018501      -0.00004061      -0.00056969
O       -1.85194518       4.60112547      12.42095867        3      -0.00006617      -0.00038333       0.00008082
O       -0.33789615       3.72863804       7.96750140        1      -0.00001969       0.00012883       0.00006773
C       -3.36652061       5.47662820      10.19248094        2      -0.00016818      -0.00013622       0.00020564
Ti      -3.36757302       7.22818064       8.90561349        0       0.00007991       0.00017551       0.00009515
Ti      -1.85188992       6.35458971      11.50093039        0      -0.00036741       0.00014277      -0.00014201
O       -3.38551332       7.21777571      12.38798011        3      -0.00006473       0.00027555      -0.00015622
O       -1.85195999       6.35494254       7.96770166        1      -0.00002087      -0.00025631       0.00024232
C       -4.88394925       8.10490091      10.19251820        2      -0.00013664      -0.00018409      -0.00007751
Ti      -4.88201429       9.85263014       8.90699814        0       0.00006082      -0.00001817      -0.00002328
Ti      -3.36626255       8.97752806      11.50091728        0      -0.00020491       0.00011804       0.00021267
O       -4.88489444       9.85429358      12.42095491        3       0.00007434      -0.00002095       0.00002982
O       -3.36600107       8.97737187       7.96777072        1      -0.00040097       0.00019643      -0.00008794
C        2.69062468       0.23194311      10.19249945        2      -0.00009180       0.00028009      -0.00000796
Ti       2.69212443       1.98061750       8.90300147        0       0.00009092       0.00005716       0.00022106
Ti       4.20804539       1.11094289      11.48415183        0       0.00007664      -0.00011640      -0.00012467
O        2.69227824       1.98282391      12.41920914        3       0.00023335       0.00013808       0.00016849
O        4.20805445       1.10375850       7.96605710        1      -0.00015357       0.00000368      -0.00023490
C        1.17787823       2.85501537      10.19318527        2      -0.00002278      -0.00002282      -0.00001846
Ti       1.17776441       4.60358177       8.90305783        0       0.00005212       0.00005944      -0.00021707
Ti       2.69330076       3.72991008      11.49002917        0       0.00001996       0.00002240      -0.00010434
O        1.17976752       4.60260391      12.41923370        3       0.00025959       0.00007746       0.00005386
O        2.69130112       3.72876497       7.96413421        1       0.00012504       0.00019234      -0.00004067
C       -0.33736033       5.47661872      10.19248604        2      -0.00007815      -0.00031002      -0.00012430
Ti      -0.33633133       7.22818975       8.90553207        0      -0.00002799      -0.00001661       0.00047489
Ti       1.18261192       6.35120605      11.48410943        0      -0.00026741       0.00013026       0.00000108
O       -0.31829154       7.21777217      12.38796530        3      -0.00023637       0.00013506      -0.00001601
O        1.17632498       6.35481696       7.96598743        1       0.00010166       0.00005624       0.00018467
C       -1.85190567       8.10321414      10.20178346        2      -0.00028621       0.00005730      -0.00017477
Ti      -1.85192353       9.85329909       8.90561267        0      -0.00018482      -0.00005140       0.00009771
Ti      -0.33753095       8.97750478      11.50095401        0      -0.00031613       0.00014510      -0.00026941
O       -1.85187167       9.87405245      12.38795707        3      -0.00046716       0.00005780      -0.00006395
O       -0.33786162       8.97738199       7.96770805        1       0.00003075       0.00008863       0.00013443
C        5.72549128       0.23195579      10.19249142        2       0.00003996       0.00024464      -0.00004376
Ti       5.72392765       1.98067870       8.90302689        0       0.00003115      -0.00020176       0.00014892
Ti       7.23776244       1.10642444      11.49370912        0      -0.00001978       0.00012342      -0.00030918
O        5.72380011       1.98286739      12.41921032        3      -0.00013840      -0.00013901       0.00015148
O        7.23951084       1.10556482       7.96752010        1      -0.00016700      -0.00018630      -0.00012962
C        4.20801941       2.85815196      10.18860471        2       0.00018683       0.00034164       0.00005333
Ti       4.20802003       4.60446497       8.90081924        0      -0.00009865       0.00020994      -0.00020054
Ti       5.72279899       3.72995205      11.49006560        0       0.00002183      -0.00009982      -0.00039800
O        4.20804429       4.60447315      12.41767281        3      -0.00013027       0.00010367       0.00011824
O        5.72474042       3.72884293       7.96411800        1       0.00008635      -0.00023871       0.00009725
C        2.69570096       5.47760672      10.18860284        2       0.00006592       0.00006468      -0.00013638
Ti       2.69365405       7.22920607       8.90298142        0       0.00014863       0.00007409       0.00002956
Ti       4.20806269       6.35353726      11.49001229        0       0.00003479       0.00012519      -0.00006405
O        2.69552273       7.22796544      12.41918562        3       0.00019385      -0.00009450       0.00025963
O        4.20805955       6.35582811       7.96414288        1      -0.00018830       0.00006225      -0.00020530
C        1.18007696       8.10484216      10.19245709        2       0.00005081       0.00024181      -0.00010997
Ti       1.17810979       9.85265638       8.90695779        0      -0.00005110      -0.00001684       0.00014025
Ti       2.69355814       8.97726811      11.49364749        0      -0.00010438       0.00029847      -0.00008591
O        1.18100897       9.85425486      12.42094478        3       0.00014268       0.00028446       0.00011998
O        2.69356763       8.97930566       7.96743893        1       0.00007412      -0.00013364       0.00025732
C        8.75327849       0.23119428      10.19591590        2       0.00005271       0.00013511       0.00008638
Ti       8.75333360       1.98029523       8.90725775        0       0.00005616      -0.00016032      -0.00013048
Ti      10.26800949       1.10574697      11.49528467        0       0.00020238      -0.00003540      -0.00042928
O        8.75276181       1.98057358      12.42318899        3       0.00007457       0.00013781       0.00038161
O       10.26798460       1.10580039       7.96904482        1       0.00027123      -0.00020714       0.00028236
C        7.23816545       2.85506225      10.19317728        2       0.00015547      -0.00017819       0.00008492
Ti       7.23827353       4.60364368       8.90302615        0       0.00009742      -0.00012155       0.00011485
Ti       8.75229522       3.72971066      11.49367606        0      -0.00007859      -0.00008961      -0.00015470
O        7.23629079       4.60263208      12.41920338        3       0.00013843       0.00014438       0.00021352
O        8.75393709       3.72865457       7.96750707        1       0.00011079       0.00021824       0.00001438
C        5.72036481       5.47767359      10.18861681        2       0.00004177      -0.00035669       0.00005531
Ti       5.72236039       7.22924193       8.90306078        0       0.00021335      -0.00008332      -0.00010543
Ti       7.23353573       6.35128557      11.48418654        0       0.00015721      -0.00014817      -0.00026624
O        5.72056372       7.22799683      12.41921746        3      -0.00002619      -0.00014991       0.00014157
O        7.23973675       6.35486562       7.96607997        1       0.00011634       0.00010494      -0.00030646
C        4.20803700       8.10341747      10.19313536        2       0.00000207      -0.00010799       0.00021222
Ti       4.20801421       9.85301052       8.90716524        0       0.00012235      -0.00004867       0.00036441
Ti       5.72259110       8.97734775      11.49371782        0      -0.00013335      -0.00009464      -0.00029390
O        4.20803927       9.85230241      12.42320397        3      -0.00001877      -0.00007440       0.00015535
O        5.72249607       8.97934211       7.96751627        1       0.00003473      -0.00034304      -0.00014554
C        0.57079899      -0.29311755      16.52696136       10      -0.00042118       0.00012815       0.00024359
C        1.78114653       0.40642327      16.49557993       10       0.00033206       0.00001085      -0.00048243
C       -0.63962863       1.80567976      16.56072860       10       0.00013341       0.00007534      -0.00005651
C        0.57240210       2.50546880      16.53139029       10      -0.00000337      -0.00011418      -0.00008280
C       -1.85203015       3.90333991      16.52663776       10       0.00014461      -0.00011759      -0.00009545
C       -0.64104630       4.60179951      16.49535716       10      -0.00007848      -0.00005792       0.00000289
C       -3.05907797       6.00451062      16.40923074       10       0.00018945       0.00005157       0.00007315
C       -1.85203274       6.68233850      16.33154160       10       0.00017887       0.00000420      -0.00032093
C       -4.27304834       8.10719440      16.40940646       10      -0.00030091       0.00014789       0.00040354
C       -3.08254430       8.81365041      16.33162556       10       0.00031098      -0.00016878       0.00016749
C        2.99397802      -0.29834165      16.40956416       10      -0.00009076      -0.00026826      -0.00003818
C        4.20795574       0.40492685      16.40149274       10       0.00009411      -0.00051673      -0.00007629
C        1.78382437       1.80471926      16.50193116       10      -0.00000738       0.00003047       0.00023352
C        2.99562753       2.50412805      16.46816948       10       0.00015929      -0.00015977      -0.00006896
C        0.57125085       3.90497010      16.50187050       10      -0.00015686       0.00001508      -0.00010772
C        1.78285528       4.60473142      16.46822653       10      -0.00024136      -0.00010215       0.00014672
C       -0.64498153       6.00453123      16.40941126       10      -0.00028857      -0.00004630       0.00042141
C        0.57105195       6.70424430      16.40157386       10      -0.00029186       0.00010656      -0.00002327
C       -1.85200415       8.10324431      15.91936281       10       0.00014228       0.00007758      -0.00016271
C       -0.62154060       8.81364258      16.33186700       10       0.00013260      -0.00020743       0.00020145
C        5.42192974      -0.29835027      16.40971001       10       0.00023535       0.00025780      -0.00022258
C        6.63476024       0.40642645      16.49569336       10       0.00016976      -0.00005144      -0.00003020
C        4.20796427       1.80196919      16.44577245       10       0.00003213      -0.00044498       0.00011645
C        5.42030762       2.50412109      16.46805208       10      -0.00024712       0.00015502      -0.00016282
C        2.99535273       3.90436522      16.46933997       10      -0.00007382       0.00005214      -0.00009569
C        4.20797348       4.60446996      16.46049614       10      -0.00017717       0.00002020       0.00033504
C        1.78092648       6.00572726      16.44599346       10      -0.00026152       0.00010830       0.00000527
C        2.99518441       6.70455827      16.46853801       10      -0.00019895      -0.00020855      -0.00039174
C        0.56897880       8.10721238      16.40983189       10       0.00005948       0.00028569      -0.00008873
C        1.78574012       8.80517272      16.49598029       10       0.00010943      -0.00044942      -0.00014142
C        7.84512469      -0.29309079      16.52724217       10       0.00027602       0.00014640      -0.00007446
C        9.05662135       0.40635290      16.56176516       10      -0.00004261      -0.00000266      -0.00038578
C        6.63211009       1.80471961      16.50181870       10      -0.00019497      -0.00003551       0.00031569
C        7.84353330       2.50546984      16.53119434       10       0.00001195       0.00006793       0.00006470
C        5.42058941       3.90436001      16.46912779       10      -0.00010697      -0.00003479       0.00011935
C        6.63307986       4.60472652      16.46787904       10       0.00032318       0.00004431       0.00030899
C        4.20797341       6.00468359      16.46947969       10      -0.00016213      -0.00007996       0.00003033
C        5.42075688       6.70455280      16.46827284       10       0.00014153      -0.00008937      -0.00000165
C        2.99537106       8.10370876      16.50238663       10       0.00019164       0.00000341      -0.00000483
C        4.20796710       8.80243999      16.53180866       10       0.00003676       0.00008557      -0.00020089
C       10.26796281      -0.29424957      16.56102261       10      -0.00001623       0.00027131       0.00003533
C       11.47931112       0.40632742      16.56161685       10       0.00001829       0.00040806       0.00011946
C        9.05556957       1.80570151      16.56068359       10       0.00008002      -0.00018319       0.00009546
C       10.26798057       2.50444060      16.56137998       10      -0.00043221       0.00017295       0.00002685
C        7.84467994       3.90496801      16.50154521       10       0.00030047      -0.00031087       0.00013467
C        9.05698273       4.60177866      16.49516045       10       0.00006513       0.00026156       0.00009850
C        6.63501112       6.00572242      16.44563957       10       0.00029393      -0.00009358      -0.00029042
C        7.84489209       6.70422080      16.40121528       10       0.00010389       0.00048828      -0.00008157
C        5.42056057       8.10370044      16.50212740       10      -0.00043054      -0.00003034      -0.00009298
C        6.63018824       8.80514090      16.49556973       10      -0.00001783       0.00038737      -0.00001853
O       -1.85184654       8.10342432      14.56776732       11      -0.00003013      -0.00006858      -0.00002845
