133
Lattice="12.12 0.0 0.0 -6.06 10.496227893867395 0.0 0.0 0.0 40.0" Properties=species:S:1:pos:R:3:tags:I:1:forces:R:3 energy=-1214.6475903387259 stress="0.0030707789838768846 7.624211725925708e-06 5.173254656723987e-07 7.624211725925708e-06 0.003046452989225427 -1.1809045259252738e-05 5.173254656723987e-07 -1.1809045259252738e-05 0.0024771235031385646" pbc="T T F"
C       -0.19792665      -0.01345912      10.18014096        2      -0.00001133       0.00024003      -0.00021345
Ti      -0.20330046       1.73994259      11.47893157        0      -0.00000793       0.00019515       0.00019970
Ti       1.31683259       0.86038680       8.89345189        0      -0.00015453      -0.00034106      -0.00016011
O       -0.19938302       1.73344838       7.94499620        1      -0.00001318      -0.00023407      -0.00007668
O        1.31948003       0.87061533      12.40913568        3      -0.00029350       0.00005442      -0.00016498
C       -1.71593712       2.61257494      10.17747380        2       0.00012705       0.00004260      -0.00021181
Ti      -1.70803447       4.36811137      11.44659512        0       0.00016282      -0.00002312       0.00032270
Ti      -0.20406381       3.48302758       8.86650305        0      -0.00030940      -0.00027913       0.00001060
O       -1.71799426       4.36374393       7.94333995        1       0.00012837       0.00013616       0.00006645
O       -0.17681021       3.50028756      12.36480025        3       0.00042628       0.00009778      -0.00019394
C       -3.22878060       5.23667340      10.18066304        2       0.00012861      -0.00006863      -0.00022503
Ti      -3.22979418       6.98303618      11.48347721        0       0.00003341      -0.00016278       0.00004358
Ti      -1.71602843       6.11403647       8.88701420        0       0.00009639       0.00001054       0.00012064
O       -3.22957848       6.99042790       7.95492590        1      -0.00000900      -0.00018139       0.00016088
O       -1.70769396       6.10969584      12.40696528        3       0.00021899       0.00003960       0.00015868
C       -4.74758937       7.85870991      10.18709373        2      -0.00018473       0.00025583       0.00012990
Ti      -4.74487959       9.60951190      11.48233263        0      -0.00000883       0.00022109       0.00021989
Ti      -3.22947844       8.73532042       8.89942639        0      -0.00022427      -0.00012363       0.00011471
O       -4.74005746       9.60716818       7.95566586        1      -0.00001589       0.00020835       0.00002325
O       -3.22985948       8.73476916      12.41598810        3      -0.00003700       0.00010050       0.00035200
C        2.83054843      -0.00918992      10.18835852        2      -0.00012464       0.00022600      -0.00020168
Ti       2.83126283       1.74360117      11.47702727        0      -0.00010037       0.00017418       0.00032882
Ti       4.34502843       0.86066008       8.89427393        0      -0.00012801      -0.00023682      -0.00002040
O        2.83145080       1.72781932       7.94485957        1      -0.00013486      -0.00020777       0.00003608
O        4.34270852       0.87173712      12.41216890        3      -0.00000506      -0.00020150      -0.00012743
C        1.31861226       2.61090934      10.16230159        2      -0.00021435      -0.00020625      -0.00044564
Ti       1.29868413       4.35074515      11.38776877        0      -0.00043166       0.00002793       0.00036983
Ti       2.83169877       3.48639753       8.86044826        0       0.00013658       0.00032501      -0.00001856
O        1.31036504       4.35907839       7.92504887        1       0.00017350      -0.00010632       0.00003564
O        2.83136791       3.51954281      12.41210027        3       0.00009707       0.00030623      -0.00015856
C       -0.19976700       5.24012512      10.16199532        2       0.00024899       0.00003092      -0.00041313
Ti      -0.19599903       6.98315971      11.47993719        0       0.00060398      -0.00043415       0.00008286
Ti       1.31588892       6.11220955       8.86180632        0       0.00042109      -0.00018425      -0.00012499
O       -0.20678620       6.99133217       7.94422473        1      -0.00020225      -0.00022999       0.00003911
O        1.34437722       6.09353937      12.41391142        3       0.00016970      -0.00003163      -0.00022218
C       -1.71178352       7.85921220      10.18787896        2       0.00018014       0.00003027       0.00010471
Ti      -1.71468968       9.61044146      11.48383205        0      -0.00014651       0.00023060       0.00019982
Ti      -0.20164728       8.73589128       8.89492644        0      -0.00025808      -0.00035664       0.00006440
O       -1.71817808       9.60759498       7.95679456        1       0.00002338       0.00017742      -0.00007414
O       -0.19333301       8.72852338      12.41302683        3      -0.00034390      -0.00011852       0.00024381
C        5.85982489      -0.01246047      10.18373645        2      -0.00035638      -0.00008222      -0.00032841
Ti       5.86400781       1.73940552      11.47820364        0      -0.00046966       0.00036429       0.00032786
Ti       7.37486116       0.86255930       8.88813136        0      -0.00019159      -0.00001932      -0.00001760
O        5.86025340       1.73347693       7.94863768        1      -0.00031145      -0.00031938       0.00009948
O        7.37238203       0.86340321      12.40753257        3      -0.00042891      -0.00014069       0.00003638
C        4.34449948       2.61189802      10.16603738        2       0.00008776      -0.00036838      -0.00021099
Ti       4.36276896       4.35204907      11.39000722        0       0.00048857       0.00004563       0.00045750
Ti       5.86628953       3.48386628       8.87288054        0       0.00026065      -0.00037491      -0.00030618
O        4.35145602       4.35808026       7.92601412        1      -0.00001532      -0.00021970       0.00006317
O        5.84821989       3.49311861      12.39735868        3      -0.00026927      -0.00007711      -0.00014833
C        2.83275354       5.23805507      10.13498612        2       0.00018356       0.00004841       0.00028070
Ti       2.83066354       7.00383336      11.39213897        0       0.00008853       0.00027585       0.00028029
Ti       4.34587869       6.11160388       8.86048617        0      -0.00004460      -0.00018413       0.00016054
O        2.83036392       6.99253101       7.92597664        1      -0.00004631      -0.00026039       0.00026249
O        4.31560264       6.09300178      12.41475258        3       0.00004276       0.00003754      -0.00022607
C        1.31474320       7.85946754      10.16694370        2      -0.00008069      -0.00000564      -0.00006632
Ti       1.31563715       9.61201173      11.47857405        0       0.00010133      -0.00011993       0.00021593
Ti       2.83045551       8.74085643       8.87471558        0      -0.00008144       0.00006715      -0.00015331
O        1.31157282       9.61094072       7.94848626        1       0.00000646       0.00008179      -0.00014272
O        2.82981206       8.72156251      12.39904214        3      -0.00012442      -0.00012727      -0.00005722
C        8.88869746      -0.01239564      10.17571553        2      -0.00013443       0.00017847      -0.00035900
Ti       8.88709629       1.72969024      11.44823387        0      -0.00024161       0.00023855      -0.00050074
Ti      10.40612861       0.86225894       8.88748557        0      -0.00017795       0.00012590       0.00006366
O        8.89036262       1.73759462       7.94910693        1      -0.00020045      -0.00036809      -0.00050016
O       10.40610915       0.85185599      12.38351954        3       0.00002950       0.00028728       0.00012110
C        7.37655474       2.61187814      10.17729918        2      -0.00036104      -0.00000618      -0.00011544
Ti       7.37189479       4.36209204      11.46460188        0      -0.00048107      -0.00008090       0.00020109
Ti       8.89037259       3.48653516       8.89093423        0      -0.00007412       0.00026572       0.00010589
O        7.37933798       4.36347009       7.94781450        1      -0.00012568       0.00015421       0.00005237
O        8.87942842       3.49534901      12.42200356        3       0.00020123      -0.00025883       0.00028951
C        5.85958732       5.23825127      10.16508465        2       0.00007066      -0.00000908      -0.00026416
Ti       5.85539242       6.98187366      11.47801529        0      -0.00020368      -0.00021826       0.00023014
Ti       7.37670126       6.11268724       8.89162174        0       0.00004441      -0.00016542       0.00021656
O        5.86874034       6.99045787       7.94402581        1       0.00031079      -0.00005232      -0.00004661
O        7.36703315       6.11022779      12.40880363        3       0.00020631       0.00011236       0.00019975
C        4.34603041       7.85728115      10.16484526        2       0.00012514       0.00018937      -0.00028872
Ti       4.34482656       9.61219484      11.47647267        0      -0.00022000       0.00011690      -0.00002706
Ti       5.86290489       8.73477809       8.89282471        0       0.00010662      -0.00005200       0.00004230
O        4.34864827       9.61107879       7.94754822        1      -0.00019079       0.00026993      -0.00011899
O        5.85472812       8.72757613      12.41074209        3       0.00022436       0.00035121       0.00010330
C        0.36900195       0.07134821      16.60184361       10      -0.00016986      -0.00000974      -0.00038298
C        1.57955519       0.76949053      16.64718335       10      -0.00004615       0.00003458      -0.00008673
C       -0.83338155       2.16439055      16.46000019       10       0.00013498       0.00002719      -0.00005477
C        0.35831688       2.86584198      16.60022527       10       0.00022636      -0.00000302       0.00000749
C       -2.05713316       4.28517728      16.35655092       10      -0.00009441       0.00012238       0.00060307
C       -0.85471508       4.96576951      16.51990724       10      -0.00012008       0.00009659       0.00004592
C       -3.26841322       6.37248292      16.49360978       10      -0.00008030       0.00014567      -0.00005371
C       -2.05888778       7.07191838      16.54647352       10       0.00014108      -0.00018125       0.00034919
C       -4.48122234       8.46909207      16.56976636       10       0.00006299       0.00007856      -0.00003065
C       -3.26949524       9.16921367      16.58585696       10       0.00019365      -0.00003781      -0.00028191
C        2.79178006       0.07119287      16.63243938       10       0.00021303      -0.00001496       0.00048053
C        4.00345440       0.77137256      16.63144010       10       0.00027140       0.00004463      -0.00003773
C        1.57798380       2.16740393      16.68139735       10       0.00017403       0.00000800       0.00036012
C        2.78972882       2.86765100      16.70785974       10       0.00017828      -0.00003889       0.00001988
C        0.36121261       4.26890821      16.60640869       10      -0.00010332       0.00006093       0.00025288
C        1.57049671       4.96787077      16.70583319       10       0.00005346       0.00016937       0.00013621
C       -0.84964711       6.37144494      16.58352553       10       0.00022836      -0.00003722       0.00016846
C        0.36198207       7.07044993      16.64503103       10       0.00010307       0.00016185       0.00014291
C       -2.05772701       8.47082595      16.57878833       10       0.00017121      -0.00005948       0.00016215
C       -0.84609896       9.17004126      16.59545990       10       0.00020100      -0.00000752       0.00043226
C        5.21465965       0.07245816      16.59291903       10       0.00022254       0.00003367      -0.00022892
C        6.42607689       0.77193837      16.54552356       10       0.00015290       0.00004506      -0.00039619
C        4.00456805       2.17093754      16.66389634       10       0.00027961       0.00002552       0.00042332
C        5.21830605       2.86970741      16.60229575       10       0.00012990      -0.00007947      -0.00016208
C        2.78913487       4.26801671      16.73210707       10       0.00022113       0.00036000      -0.00006414
C        4.00610400       4.96898095      16.70246369       10      -0.00001309      -0.00000024      -0.00048209
C        1.57457640       6.37186436      16.69624128       10       0.00004818       0.00017421       0.00030690
C        2.78965688       7.07325646      16.69169477       10       0.00013741      -0.00001222      -0.00025466
C        0.36570077       8.47102517      16.61975951       10       0.00010646       0.00008307      -0.00026923
C        1.57813111       9.17265034      16.59687434       10       0.00003447       0.00005529      -0.00034383
C        7.63713619       0.07428952      16.52737786       10       0.00010733      -0.00001328      -0.00007297
C        8.85093831       0.78022868      16.44270234       10      -0.00011155       0.00010095       0.00002311
C        6.42744482       2.16958564      16.51801766       10       0.00006401       0.00008414      -0.00049627
C        7.64410427       2.86809715      16.40362142       10       0.00000110       0.00004848       0.00008642
C        5.21842723       4.26934322      16.61305077       10       0.00034302      -0.00008273      -0.00021348
C        6.43006565       4.96874681      16.52139543       10       0.00017252      -0.00008967       0.00010714
C        4.00488980       6.37215139      16.68463515       10       0.00016247       0.00004493       0.00053571
C        5.21712468       7.07139748      16.61958450       10       0.00014794      -0.00010110       0.00011523
C        2.79013974       8.47273639      16.62252176       10      -0.00006849      -0.00000763      -0.00031167
C        4.00243982       9.17381337      16.57472521       10       0.00001234      -0.00025696       0.00002215
C       10.06282066       0.07370848      16.49038444       10      -0.00025011      -0.00024129      -0.00003670
C       11.27556262       0.77722356      16.52387045       10      -0.00023003      -0.00010019      -0.00005073
C        8.83929114       2.16555832      16.32313615       10       0.00014087       0.00014752       0.00025447
C       10.08381907       2.86657536      15.97518085       10       0.00009321       0.00021581       0.00008510
C        7.63814048       4.27139828      16.40997616       10      -0.00006953       0.00007042      -0.00029219
C        8.85558975       4.96902668      16.40272473       10      -0.00021598       0.00018563      -0.00007432
C        6.42819785       6.37013634      16.55384746       10       0.00006499      -0.00018295      -0.00042797
C        7.64012215       7.06978244      16.52670017       10      -0.00004700       0.00004914       0.00015137
C        5.21498669       8.47151505      16.59422217       10       0.00001886      -0.00018439      -0.00018569
C        6.42740233       9.16984089      16.58385174       10      -0.00007151       0.00000458       0.00006520
O       10.25875463       2.80097142      14.54543993       11      -0.00013998       0.00023453      -0.00036015
H        9.52027933       3.17234585      13.99691647       12      -0.00074636      -0.00011077      -0.00017515
Na       2.82547255       5.22014027      13.97615047       20      -0.00020128      -0.00016332       0.00018241
