131
Lattice="12.12 0.0 0.0 -6.06 10.496227893867395 0.0 0.0 0.0 40.0" Properties=species:S:1:pos:R:3:tags:I:1:forces:R:3 energy=-1206.1615504205151 stress="0.0029412612107397786 -4.3295078679963226e-08 2.658041055430513e-09 -4.3295078679963226e-08 0.0029413184334528423 3.509425902219292e-09 2.658041055430513e-09 3.509425902219292e-09 0.00254917557135642" pbc="T T F"
C       -0.33973081       0.23252594      10.19022930        2       0.00011519      -0.00002120      -0.00039877
Ti      -0.33819759       1.97978002      11.49191022        0       0.00014577       0.00000561      -0.00025816
Ti       1.17785349       1.10642714       8.90580304        0       0.00010812      -0.00017387      -0.00002383
O       -0.33506276       1.98154790       7.96620970        1      -0.00023214       0.00004965      -0.00019377
O        1.17380001       1.10829284      12.42237901        3       0.00010712       0.00016233       0.00002897
C       -1.85209662       2.85207194      10.19009628        2      -0.00016126       0.00012942      -0.00028533
Ti      -1.85213006       4.59835503      11.48919752        0       0.00000465       0.00022175       0.00022378
Ti      -0.33650226       3.72941448       8.90577773        0      -0.00016685      -0.00016190      -0.00010752
O       -1.85209273       4.60751421       7.96929255        1      -0.00001230       0.00000265       0.00017907
O       -0.33696541       3.72494985      12.42235956        3       0.00006246       0.00008974       0.00001437
C       -3.36957202       5.47821421      10.19612808        2      -0.00005268      -0.00002841       0.00045276
Ti      -3.36692624       7.22863233      11.50554420        0       0.00011554       0.00009617       0.00035066
Ti      -1.85214153       6.35297094       8.91032839        0       0.00007509       0.00019638       0.00043366
O       -3.36564225       7.22940298       7.97190455        1      -0.00011154       0.00004738       0.00019914
O       -1.85214897       6.33082106      12.39114863        3       0.00008084       0.00008770       0.00068937
C       -4.88413418       8.10156293      10.19627085        2      -0.00026278      -0.00013447      -0.00001143
Ti      -4.88738816       9.85561546      11.48929943        0       0.00031150      -0.00012728       0.00028375
Ti      -3.36789483       8.97836001       8.91038101        0       0.00011727      -0.00028935       0.00043346
O       -4.87957239       9.85106983       7.96940785        1       0.00049982      -0.00025973       0.00013013
O       -3.38695670       8.98934990      12.39125285        3      -0.00028203       0.00000982       0.00033710
C        2.69332277       0.23359447      10.19624173        2      -0.00041276       0.00032291      -0.00020683
Ti       2.69134318       1.98052575      11.49581885        0       0.00023391      -0.00032904      -0.00017527
Ti       4.20790318       1.10587337       8.90993624        0      -0.00016693      -0.00024567      -0.00009884
O        2.69402459       1.98097487       7.96996078        1       0.00005393       0.00012571       0.00015978
O        4.20791113       1.11144738      12.42234102        3      -0.00008988       0.00045466       0.00014541
C        1.17789040       2.85511076      10.19508621        2      -0.00007644      -0.00034362       0.00025654
Ti       1.17721219       4.60306939      11.49585490        0       0.00015893       0.00011932      -0.00019246
Ti       2.69305422       3.72984235       8.90871907        0       0.00001504       0.00034422      -0.00022774
O        1.17899255       4.60518156       7.97001506        1       0.00005589       0.00013365      -0.00007688
O        2.69255225       3.72957746      12.42328163        3       0.00001368      -0.00016590       0.00031449
C       -0.33469746       5.47821775      10.19621224        2       0.00035046      -0.00005965       0.00020362
Ti      -0.33730709       7.22859074      11.50558251        0      -0.00028786       0.00036154       0.00015874
Ti       1.17801141       6.35376580       8.91005173        0       0.00008358      -0.00018800      -0.00035916
O       -0.33858589       7.22938947       7.97191928        1       0.00003627      -0.00018655       0.00030945
O        1.18282787       6.35094651      12.42244084        3       0.00009159      -0.00010978       0.00001775
C       -1.85214150       8.10320794      10.20718027        2       0.00017199      -0.00015326      -0.00020314
Ti      -1.85213706       9.85235845      11.50557120        0      -0.00001068      -0.00021901       0.00013360
Ti      -0.33637291       8.97831619       8.91037128        0      -0.00010709       0.00004563       0.00039538
O       -1.85211818       9.85084009       7.97190985        1      -0.00009527      -0.00000643       0.00014693
O       -0.31727731       8.98937418      12.39115363        3       0.00040957       0.00003482       0.00083340
C        5.72245869       0.23359361      10.19616984        2       0.00019151       0.00031295       0.00021901
Ti       5.72442967       1.98051127      11.49572850        0      -0.00019088      -0.00012435      -0.00001375
Ti       7.23792487       1.10641307       8.90571804        0      -0.00000356      -0.00006908      -0.00003432
O        5.72175009       1.98098120       7.96988960        1      -0.00025941       0.00001457       0.00027195
O        7.24197887       1.10834371      12.42226440        3      -0.00020363      -0.00031203       0.00036576
C        4.20787756       2.85525414      10.19767479        2       0.00016275      -0.00032119      -0.00002548
Ti       4.20789361       4.60444201      11.49567295        0      -0.00003477       0.00003895      -0.00016781
Ti       5.72271287       3.72985102       8.90864012        0      -0.00001525       0.00017844      -0.00013990
O        4.20786060       4.60446729       7.97086731        1       0.00005396       0.00010907      -0.00053030
O        5.72326096       3.72952325      12.42321742        3      -0.00010341       0.00030236       0.00019555
C        2.69306724       5.47904060      10.19782215        2      -0.00069631       0.00022006      -0.00063213
Ti       2.69376920       7.22979331      11.49595936        0      -0.00026634      -0.00019399      -0.00038100
Ti       4.20789886       6.35360831       8.90882236        0      -0.00034379      -0.00004500      -0.00042485
O        2.69283028       7.22719938       7.97012844        1      -0.00009964       0.00000410      -0.00041029
O        4.20791321       6.35418481      12.42335257        3      -0.00013718      -0.00002913       0.00028618
C        1.17988323       8.10154775      10.19629121        2       0.00033285      -0.00013730       0.00010584
Ti       1.18311770       9.85562175      11.48927432        0       0.00001468      -0.00003347       0.00010704
Ti       2.69349573       8.97751991       8.90593928        0       0.00016515       0.00014663      -0.00049340
O        1.17529486       9.85100490       7.96938963        1      -0.00014919      -0.00001164       0.00001093
O        2.69710571       8.98017449      12.42247502        3       0.00012819      -0.00015903      -0.00028984
C        8.75551676       0.23252896      10.19017788        2      -0.00033480      -0.00012503      -0.00030274
Ti       8.75397756       1.97977289      11.49178258        0      -0.00024664       0.00010531       0.00005668
Ti      10.26790560       1.10567538       8.90190518        0      -0.00017335       0.00025227      -0.00019587
O        8.75086872       1.98155296       7.96614243        1       0.00024954      -0.00016056      -0.00010393
O       10.26786295       1.10577237      12.41981544        3       0.00009029      -0.00016095       0.00029548
C        7.23789861       2.85508182      10.19496081        2      -0.00016935       0.00010426       0.00044287
Ti       7.23854481       4.60306688      11.49575074        0       0.00005874       0.00021488      -0.00014042
Ti       8.75226684       3.72942002       8.90566990        0       0.00020914      -0.00024599       0.00010838
O        7.23677186       4.60520262       7.96990205        1      -0.00006787      -0.00002942       0.00014854
O        8.75268588       3.72494364      12.42224264        3       0.00004643       0.00013755       0.00043572
C        5.72271081       5.47906169      10.19773830        2       0.00063090      -0.00007511      -0.00022143
Ti       5.72201580       7.22978471      11.49593043        0       0.00033382      -0.00003914      -0.00037755
Ti       7.23772862       6.35377569       8.90996121        0       0.00020173      -0.00001651      -0.00011517
O        5.72289690       7.22722792       7.97004267        1       0.00015793      -0.00001871       0.00003810
O        7.23297076       6.35093865      12.42239284        3      -0.00045914      -0.00035088      -0.00012970
C        4.20787801       8.10316656      10.19524361        2       0.00001826       0.00042420      -0.00014944
Ti       4.20787236       9.85383284      11.49206882        0       0.00010088      -0.00021661      -0.00069743
Ti       5.72222294       8.97753175       8.90591826        0       0.00028812       0.00013583      -0.00033731
O        4.20788290       9.85015516       7.96628861        1      -0.00010588       0.00031379      -0.00015053
O        5.71864420       8.98013539      12.42247629        3      -0.00011685       0.00005455      -0.00025520
C        0.57073837      -0.29287661      16.50407710       10       0.00027644       0.00018609      -0.00008665
C        1.78129108       0.40652966      16.48796815       10      -0.00027678       0.00031002      -0.00079978
C       -0.63970908       1.80556722      16.51707219       10       0.00012858       0.00026322      -0.00003719
C        0.57246739       2.50541795      16.50863706       10      -0.00000819      -0.00005643       0.00008143
C       -1.85178028       3.90307652      16.50440465       10      -0.00001603       0.00006530      -0.00012686
C       -0.64079046       4.60172861      16.48817882       10      -0.00000592      -0.00015322      -0.00031062
C       -3.05877574       6.00481743      16.41740246       10      -0.00010324      -0.00007951      -0.00030930
C       -1.85178359       6.68252412      16.33937999       10       0.00001075      -0.00023779      -0.00010221
C       -4.27259517       8.10719924      16.41702914       10       0.00002203       0.00021953       0.00047308
C       -3.08217448       8.81362052      16.33905794       10      -0.00025700       0.00005279       0.00009380
C        2.99441023      -0.29847603      16.41718892       10      -0.00030048      -0.00005463       0.00037542
C        4.20821906       0.40485752      16.41325212       10       0.00006449      -0.00000892      -0.00009455
C        1.78411697       1.80471316      16.49433640       10       0.00017959       0.00019864      -0.00008211
C        2.99611068       2.50416175      16.47850835       10       0.00019732      -0.00005032      -0.00001797
C        0.57149069       3.90509371      16.49438043       10      -0.00019266      -0.00007957       0.00022674
C        1.78321560       4.60500714      16.47851655       10      -0.00017287      -0.00018149      -0.00007493
C       -0.64478858       6.00482283      16.41745503       10      -0.00002937      -0.00016259       0.00006612
C        0.57121764       6.70435786      16.41333057       10      -0.00010409       0.00003088      -0.00008361
C       -1.85176351       8.10320791      15.92986847       10       0.00001363      -0.00003777      -0.00009322
C       -0.62137638       8.81362856      16.33909204       10       0.00006966       0.00030651       0.00020699
C        5.42203889      -0.29846130      16.41708224       10       0.00006153       0.00015764      -0.00033401
C        6.63516335       0.40654959      16.48753865       10       0.00000211       0.00031458       0.00027581
C        4.20821134       1.80184129      16.45919721       10       0.00006324      -0.00021057      -0.00014753
C        5.42031814       2.50414915      16.47831874       10      -0.00009991       0.00021371      -0.00031038
C        2.99549857       3.90436174      16.48171055       10      -0.00009400      -0.00017716       0.00027572
C        4.20821862       4.60452861      16.47849620       10      -0.00015951      -0.00009010       0.00021233
C        1.78104546       6.00587645      16.45920441       10      -0.00039007      -0.00016722       0.00041621
C        2.99530946       6.70443766      16.47836948       10      -0.00004376      -0.00035254      -0.00046538
C        0.56903744       8.10721514      16.41710506       10      -0.00000559      -0.00002231       0.00035394
C        1.78614294       8.80531596      16.48763723       10       0.00018085      -0.00015225      -0.00041814
C        7.84570360      -0.29284941      16.50373512       10       0.00010729      -0.00013680       0.00040729
C        9.05717415       0.40658539      16.51639645       10      -0.00009001       0.00005456       0.00016047
C        6.63232390       1.80472038      16.49390679       10      -0.00007289       0.00034336       0.00031773
C        7.84397648       2.50541687      16.50827661       10      -0.00013247      -0.00001374      -0.00026964
C        5.42092977       3.90434304      16.48157872       10       0.00018627       0.00023701       0.00009751
C        6.63321516       4.60498360      16.47831454       10       0.00031004       0.00007621       0.00021034
C        4.20821367       6.00486661      16.48160646       10       0.00002405      -0.00024987      -0.00030410
C        5.42112127       6.70441904      16.47821482       10       0.00009736      -0.00011096       0.00015325
C        2.99557664       8.10377542      16.49399179       10       0.00011549      -0.00033276       0.00001355
C        4.20821703       8.80273981      16.50819363       10       0.00013614       0.00012307      -0.00025023
C       10.26821984      -0.29379606      16.51670764       10       0.00008373       0.00013387       0.00006629
C       11.47927302       0.40657574      16.51667706       10       0.00001290       0.00005242      -0.00004386
C        9.05615246       1.80557265      16.51677426       10      -0.00008230       0.00013502       0.00041850
C       10.26822062       2.50418832      16.51685595       10       0.00007595      -0.00005527      -0.00042882
C        7.84495172       3.90508791      16.49414759       10      -0.00003068      -0.00011109       0.00006248
C        9.05722800       4.60172455      16.48805389       10       0.00010626      -0.00025321      -0.00009931
C        6.63538660       6.00585321      16.45906760       10       0.00022878       0.00007364      -0.00015602
C        7.84521084       6.70434363      16.41320985       10       0.00033725      -0.00007275       0.00001083
C        5.42085195       8.10375643      16.49388997       10       0.00006470      -0.00012020       0.00045879
C        6.63029277       8.80528861      16.48763545       10      -0.00015171       0.00007518      -0.00001301
O       -1.85151715       8.10294376      14.57678482       11      -0.00048427       0.00007520      -0.00035566
