137
Lattice="12.12 0.0 0.0 -6.06 10.496227893867395 0.0 0.0 0.0 40.0" Properties=species:S:1:pos:R:3:tags:I:1:forces:R:3 energy=-1227.147947308951 stress="0.00329354688239948 5.6879220604811285e-06 -7.111752104786381e-09 5.6879220604811285e-06 0.0033105584629750653 -1.975216439596615e-06 -7.111752104786381e-09 -1.975216439596615e-06 0.002383600282280805" pbc="T T F"
C       -0.34375713       0.54562627       9.97796307        2      -0.00031159      -0.00011296      -0.00008610
Ti      -0.34618931       2.29432851       8.69546654        0       0.00010575       0.00018650      -0.00017424
Ti       1.18095029       1.41947054      11.23863072        0      -0.00010283      -0.00004802       0.00065662
O       -0.34694776       2.27429061      12.25933408        3       0.00009744       0.00004121      -0.00016540
O        1.17069810       1.43452559       7.74944311        1      -0.00035441       0.00008993      -0.00004500
C       -1.85672863       3.17632364       9.99329049        2       0.00008502       0.00011860      -0.00008198
Ti      -1.85987122       4.91477904       8.68309087        0       0.00010521      -0.00017824      -0.00025577
Ti      -0.34386087       4.03194829      11.24412332        0       0.00013055      -0.00024432       0.00003051
O       -1.86802516       4.96501213      12.27300752        3      -0.00005167       0.00017694      -0.00016915
O       -0.34227764       4.03959768       7.75169345        1       0.00030229       0.00019515      -0.00024875
C       -3.37408284       5.79355388       9.95746749        2       0.00019261       0.00000217      -0.00038051
Ti      -3.37876116       7.54025735       8.63902629        0      -0.00043959       0.00013232      -0.00025180
Ti      -1.86541995       6.68779470      11.16188014        0       0.00012695       0.00010751       0.00024027
O       -3.39112827       7.54969282      12.20127552        3      -0.00005773       0.00010124      -0.00012933
O       -1.85686202       6.66033388       7.71750625        1       0.00013384      -0.00014367      -0.00012239
C       -4.89514225       8.42189606       9.94441501        2       0.00021234      -0.00000158      -0.00010834
Ti      -4.89956580      10.17490271       8.66778755        0      -0.00014650       0.00027300       0.00009280
Ti      -3.37800423       9.29255352      11.12325062        0       0.00021128      -0.00032049       0.00085589
O       -4.88987285      10.15809179      12.27607980        3       0.00011465       0.00002145      -0.00024062
O       -3.37752080       9.30139287       7.71682276        1      -0.00002712      -0.00008709      -0.00006124
C        2.68411009       0.54912039       9.97091401        2       0.00009352      -0.00026170      -0.00040019
Ti       2.68706459       2.29758755       8.70092335        0       0.00007199      -0.00022941      -0.00058753
Ti       4.19857815       1.41063928      11.28905881        0      -0.00034218      -0.00002550      -0.00016595
O        2.68121697       2.28465488      12.23282576        3       0.00001908       0.00002375       0.00020161
O        4.20081027       1.43604458       7.75195272        1      -0.00041538      -0.00029285       0.00027652
C        1.16756965       3.17362905      10.00015888        2       0.00019404       0.00039542       0.00000487
Ti       1.17118634       4.91781705       8.69163126        0      -0.00016429      -0.00025185      -0.00034526
Ti       2.68253809       4.02994136      11.24297573        0       0.00024542       0.00003221       0.00052743
O        1.16882718       4.96304120      12.29653130        3       0.00014659       0.00034307      -0.00018828
O        2.68542899       4.04158876       7.75451238        1       0.00005036      -0.00014932      -0.00006254
C       -0.34546764       5.78952214       9.96899899        2       0.00032366       0.00043355       0.00036738
Ti      -0.34245623       7.54061615       8.64299087        0      -0.00039026      -0.00004345      -0.00001417
Ti       1.17321126       6.68162497      11.18562243        0      -0.00044170       0.00016290       0.00042023
O       -0.33620793       7.54939418      12.20492770        3       0.00023138      -0.00005051      -0.00018245
O        1.17612107       6.66132779       7.73230262        1      -0.00009857      -0.00011162      -0.00001882
C       -1.86460818       8.41736710       9.92987331        2      -0.00023369       0.00006974      -0.00043870
Ti      -1.86060579      10.17691542       8.65241328        0      -0.00006673       0.00015936      -0.00054424
Ti      -0.35321640       9.28824780      11.12730835        0      -0.00019113      -0.00084256       0.00045038
O       -1.86400616      10.11586622      12.24735132        3      -0.00004588       0.00010215       0.00008637
O       -0.33916577       9.29955321       7.72361343        1       0.00004725      -0.00015660       0.00034543
C        5.71289697       0.54950898       9.97833950        2       0.00017600       0.00002247      -0.00071334
Ti       5.71458915       2.29809612       8.71737007        0      -0.00015442      -0.00009902      -0.00081708
Ti       7.23029114       1.41447320      11.29078944        0       0.00022636      -0.00023526      -0.00019764
O        5.71044816       2.28380446      12.24292189        3       0.00003300       0.00009981      -0.00032675
O        7.22956472       1.42900413       7.76120817        1      -0.00013131      -0.00009852      -0.00006211
C        4.20012657       3.16952708      10.00669112        2       0.00022716       0.00009029      -0.00011203
Ti       4.19853401       4.91720217       8.69206135        0       0.00020856      -0.00066395       0.00008360
Ti       5.71621995       4.04484482      11.29006818        0      -0.00000159      -0.00004213       0.00011197
O        4.19083568       4.93783628      12.24865540        3       0.00020889      -0.00010119       0.00000271
O        5.71213382       4.03909098       7.75929655        1       0.00028190       0.00007570       0.00038132
C        2.68594364       5.79160662       9.97421922        2      -0.00008164      -0.00010915      -0.00002658
Ti       2.68614103       7.54410396       8.68014392        0       0.00018118      -0.00010346      -0.00017609
Ti       4.21897596       6.68410885      11.19954772        0       0.00008219      -0.00036540       0.00044370
O        2.68373593       7.51807501      12.25488180        3       0.00010570       0.00002461      -0.00003056
O        4.19752416       6.66086619       7.73891941        1      -0.00044546       0.00018147      -0.00002720
C        1.17809484       8.41886529       9.95997429        2       0.00001508      -0.00001936      -0.00006090
Ti       1.17677087      10.17259810       8.68373279        0      -0.00003153       0.00039295       0.00003275
Ti       2.68893949       9.29013577      11.28055308        0       0.00026135       0.00015052       0.00008034
O        1.14097147      10.13371945      12.24504591        3       0.00048500      -0.00002391      -0.00007650
O        2.68634046       9.29704422       7.74799634        1       0.00020844       0.00000340       0.00009483
C        8.74149729       0.54028291       9.99777445        2       0.00011932      -0.00001910       0.00032992
Ti       8.74043425       2.29565019       8.69872395        0       0.00009006       0.00002628      -0.00037751
Ti      10.24372198       1.42743900      11.22025740        0       0.00029793       0.00008233       0.00044579
O        8.74978666       2.29841538      12.22918470        3       0.00012515       0.00002728      -0.00027443
O       10.25539789       1.42695474       7.75757259        1      -0.00010751      -0.00013596       0.00007898
C        7.22674823       3.17104033      10.00446549        2      -0.00022064      -0.00028516      -0.00018504
Ti       7.22773789       4.91513088       8.68993526        0      -0.00001358      -0.00012206      -0.00017665
Ti       8.74517128       4.03436281      11.23566652        0       0.00013125       0.00002795      -0.00006820
O        7.25432711       4.95128936      12.24761019        3      -0.00026530      -0.00010191      -0.00005666
O        8.74260700       4.03491717       7.75127850        1      -0.00034325       0.00027909       0.00015608
C        5.71347781       5.78994651       9.97470168        2       0.00003177       0.00011462       0.00004889
Ti       5.71269096       7.54429784       8.66436876        0       0.00017942       0.00001576       0.00003486
Ti       7.21632361       6.68247944      11.19243263        0       0.00051454       0.00001529       0.00000939
O        5.72575231       7.54568370      12.20741342        3       0.00019014      -0.00037935       0.00009785
O        7.22053977       6.65855098       7.72609164        1       0.00003760       0.00013370       0.00006839
C        4.19765331       8.42192556       9.97951334        2      -0.00028521       0.00024374      -0.00022810
Ti       4.19860120      10.17043672       8.69571680        0      -0.00016601       0.00019424       0.00023920
Ti       5.71804977       9.28151342      11.22439244        0      -0.00003684       0.00015906       0.00040207
O        4.22291558      10.17601671      12.25832068        3      -0.00014959       0.00008634       0.00017172
O        5.70604772       9.29642065       7.73638144        1      -0.00001235      -0.00008391       0.00011798
C        0.55581938      -0.85148432      16.93308476       10      -0.00001688       0.00016216      -0.00009866
C        1.76597880      -0.15188924      16.87326448       10      -0.00016267       0.00023541       0.00014911
C       -0.65516911       1.24879616      17.00041910       10      -0.00017998      -0.00010188       0.00024642
C        0.55764462       1.94791000      16.93754354       10      -0.00015854      -0.00005899       0.00014999
C       -1.86797985       3.34642111      16.97602743       10       0.00002590      -0.00010726       0.00026530
C       -0.65725600       4.04477109      16.92707214       10      -0.00002524      -0.00002867      -0.00020475
C       -3.07215502       5.44874236      16.82509481       10       0.00005266      -0.00006194      -0.00009689
C       -1.86772500       6.13491928      16.71882925       10      -0.00006760       0.00001991       0.00003479
C       -4.28446935       7.54944454      16.80343881       10      -0.00000764       0.00018752      -0.00015221
C       -3.08782025       8.24812156      16.69085020       10      -0.00019521       0.00015754       0.00048896
C        2.98093234      -0.85902316      16.77932677       10       0.00003819       0.00025551       0.00004406
C        4.19313183      -0.15045045      16.77869646       10       0.00014722       0.00008684       0.00051855
C        1.76919701       1.24698845      16.88028069       10      -0.00019824       0.00012869      -0.00003651
C        2.98102591       1.94678620      16.83490162       10       0.00004981      -0.00001767       0.00033857
C        0.55568357       3.34801239      16.91218869       10      -0.00017468      -0.00009938      -0.00029883
C        1.76843586       4.04571795      16.85418426       10       0.00012473      -0.00011207       0.00055134
C       -0.66320901       5.44908224      16.82782823       10       0.00007530      -0.00003099      -0.00023577
C        0.55660274       6.14672999      16.81928856       10       0.00001352      -0.00001391      -0.00001504
C       -1.86371855       7.54000716      16.26953084       10      -0.00015948       0.00017041       0.00005035
C       -0.64675784       8.24903872      16.71209230       10       0.00004832       0.00012287      -0.00028470
C        5.40463712      -0.85875342      16.80732894       10       0.00017284       0.00020272      -0.00006960
C        6.61793685      -0.15203662      16.92474638       10       0.00014440       0.00001960       0.00044193
C        4.19347547       1.24555618      16.81915371       10       0.00004280      -0.00002773       0.00059960
C        5.40583842       1.94646966      16.85589980       10       0.00010403      -0.00002412       0.00041561
C        2.98094473       3.34646237      16.83583474       10      -0.00007070      -0.00011417       0.00027403
C        4.19397613       4.04583101      16.82865488       10      -0.00001442       0.00001531       0.00063085
C        1.76632389       5.44674333      16.84989954       10      -0.00004130      -0.00003113       0.00014440
C        2.98116536       6.14704142      16.87958606       10       0.00001283       0.00000566       0.00006741
C        0.54996762       7.55061441      16.82752178       10       0.00007308       0.00008892       0.00000672
C        1.76794910       8.24740823      16.94016322       10       0.00012312      -0.00015774      -0.00006892
C        7.82834903      -0.85068409      16.98465297       10       0.00008841      -0.00010598      -0.00041014
C        9.04012094      -0.15175848      17.03586944       10      -0.00007601      -0.00004181       0.00038508
C        6.61598639       1.24652997      16.92557229       10       0.00011949       0.00005804      -0.00028314
C        7.82711341       1.94750606      16.98010929       10       0.00011507      -0.00011151       0.00026231
C        5.40615059       3.34596075      16.85109394       10      -0.00004671       0.00005493       0.00013097
C        6.61780051       4.04583102      16.87192228       10       0.00002196      -0.00008943      -0.00030946
C        4.19462491       5.44571334      16.85899277       10      -0.00004043      -0.00000706       0.00017504
C        5.40626070       6.14621567      16.87503843       10      -0.00001521      -0.00000553      -0.00003513
C        2.97922172       7.54678851      16.94366667       10       0.00024881       0.00005965      -0.00016534
C        4.19318202       8.24434973      16.98175334       10       0.00016168       0.00006805      -0.00019348
C       10.25183911      -0.85253206      17.02465006       10      -0.00009772      -0.00005844      -0.00024489
C       11.46406133      -0.15249939      17.00225519       10      -0.00016760       0.00003055       0.00006198
C        9.03895818       1.24809409      17.03071121       10      -0.00000487      -0.00018147      -0.00020471
C       10.25135639       1.94750265      17.02156186       10      -0.00002747      -0.00007019      -0.00011483
C        7.82977133       3.34733401      16.93382173       10      -0.00007999      -0.00011719      -0.00037324
C        9.04180795       4.04530660      16.93377418       10      -0.00006251      -0.00014580      -0.00018791
C        6.61887722       5.44625612      16.85172676       10       0.00009346      -0.00006585      -0.00002127
C        7.82832468       6.14573582      16.81301453       10      -0.00002304       0.00004524      -0.00023176
C        5.40664206       7.54543096      16.93051250       10       0.00013671      -0.00004980      -0.00006092
C        6.61753089       8.24638000      16.90832205       10      -0.00019201       0.00016230       0.00010391
O       -1.85051844       7.53285253      14.82155521       11       0.00005140      -0.00010890      -0.00012128
Na      -0.43142536       5.88046575      13.85738923        0      -0.00065945       0.00013257      -0.00020092
Na       3.00949625       5.84498664      13.92609075        0       0.00005078       0.00065488       0.00011554
Na       8.63155095       5.87752381      13.87863411        0       0.00005137      -0.00069849      -0.00030443
Na      -3.34015902       9.14494344      13.94294346        0      -0.00011486      -0.00047406      -0.00028168
Na      -0.51344781       0.63895000      13.92678320        0      -0.00033523       0.00071929       0.00013517
Na      -0.20932439       9.18212896      13.96637985        0      -0.00030399       0.00040005      -0.00000810
