80
Lattice="12.12 0.0 0.0 -6.06 10.496227893867395 0.0 0.0 0.0 40.0" Properties=species:S:1:pos:R:3:tags:I:1:forces:R:3 energy=-735.3955634268532 stress="0.0037843559618983428 8.35030670198005e-17 -4.58899312624794e-16 8.35030670198005e-17 0.0037843559618983007 -2.784385686150463e-16 -4.58899312624794e-16 -2.784385686150463e-16 0.0013453049121885518" pbc="T T F"
C       -0.00000000       0.00000000      10.00000000        2      -0.00000000       0.00000000      -0.00000000
Ti      -0.00000000       1.74937132      11.29068242        0       0.00000000       0.00000000       0.00000485
Ti       1.51500000       0.87468566       8.70931758        0      -0.00000000       0.00000000      -0.00000485
O       -0.00000000       1.74937132       7.76991976        1      -0.00000000      -0.00000000       0.00001820
O        1.51500000       0.87468566      12.23008024        3      -0.00000000       0.00000000      -0.00001820
C       -1.51500000       2.62405697      10.00000000        2       0.00000000      -0.00000000      -0.00000000
Ti      -1.51500000       4.37342829      11.29068242        0       0.00000000       0.00000000       0.00000485
Ti       0.00000000       3.49874263       8.70931758        0      -0.00000000      -0.00000000      -0.00000485
O       -1.51500000       4.37342829       7.76991976        1      -0.00000000      -0.00000000       0.00001820
O        0.00000000       3.49874263      12.23008024        3      -0.00000000      -0.00000000      -0.00001820
C       -3.03000000       5.24811395      10.00000000        2       0.00000000       0.00000000      -0.00000000
Ti      -3.03000000       6.99748526      11.29068242        0       0.00000000       0.00000000       0.00000485
Ti      -1.51500000       6.12279960       8.70931758        0      -0.00000000      -0.00000000      -0.00000485
O       -3.03000000       6.99748526       7.76991976        1      -0.00000000       0.00000000       0.00001820
O       -1.51500000       6.12279960      12.23008024        3      -0.00000000      -0.00000000      -0.00001820
C       -4.54500000       7.87217092      10.00000000        2      -0.00000000      -0.00000000      -0.00000000
Ti      -4.54500000       9.62154224      11.29068242        0      -0.00000000      -0.00000000       0.00000485
Ti      -3.03000000       8.74685658       8.70931758        0      -0.00000000      -0.00000000      -0.00000485
O       -4.54500000       9.62154224       7.76991976        1      -0.00000000      -0.00000000       0.00001820
O       -3.03000000       8.74685658      12.23008024        3      -0.00000000       0.00000000      -0.00001820
C        3.03000000       0.00000000      10.00000000        2      -0.00000000      -0.00000000      -0.00000000
Ti       3.03000000       1.74937132      11.29068242        0       0.00000000       0.00000000       0.00000485
Ti       4.54500000       0.87468566       8.70931758        0       0.00000000       0.00000000      -0.00000485
O        3.03000000       1.74937132       7.76991976        1      -0.00000000      -0.00000000       0.00001820
O        4.54500000       0.87468566      12.23008024        3      -0.00000000      -0.00000000      -0.00001820
C        1.51500000       2.62405697      10.00000000        2      -0.00000000       0.00000000      -0.00000000
Ti       1.51500000       4.37342829      11.29068242        0       0.00000000       0.00000000       0.00000485
Ti       3.03000000       3.49874263       8.70931758        0       0.00000000       0.00000000      -0.00000485
O        1.51500000       4.37342829       7.76991976        1      -0.00000000       0.00000000       0.00001820
O        3.03000000       3.49874263      12.23008024        3      -0.00000000      -0.00000000      -0.00001820
C       -0.00000000       5.24811395      10.00000000        2      -0.00000000      -0.00000000      -0.00000000
Ti      -0.00000000       6.99748526      11.29068242        0       0.00000000       0.00000000       0.00000485
Ti       1.51500000       6.12279960       8.70931758        0       0.00000000       0.00000000      -0.00000485
O        0.00000000       6.99748526       7.76991976        1      -0.00000000      -0.00000000       0.00001820
O        1.51500000       6.12279960      12.23008024        3      -0.00000000      -0.00000000      -0.00001820
C       -1.51500000       7.87217092      10.00000000        2       0.00000000      -0.00000000      -0.00000000
Ti      -1.51500000       9.62154224      11.29068242        0       0.00000000      -0.00000000       0.00000485
Ti      -0.00000000       8.74685658       8.70931758        0       0.00000000       0.00000000      -0.00000485
O       -1.51500000       9.62154224       7.76991976        1       0.00000000      -0.00000000       0.00001820
O        0.00000000       8.74685658      12.23008024        3      -0.00000000       0.00000000      -0.00001820
C        6.06000000       0.00000000      10.00000000        2       0.00000000       0.00000000      -0.00000000
Ti       6.06000000       1.74937132      11.29068242        0      -0.00000000      -0.00000000       0.00000485
Ti       7.57500000       0.87468566       8.70931758        0       0.00000000       0.00000000      -0.00000485
O        6.06000000       1.74937132       7.76991976        1       0.00000000       0.00000000       0.00001820
O        7.57500000       0.87468566      12.23008024        3       0.00000000       0.00000000      -0.00001820
C        4.54500000       2.62405697      10.00000000        2       0.00000000       0.00000000      -0.00000000
Ti       4.54500000       4.37342829      11.29068242        0      -0.00000000       0.00000000       0.00000485
Ti       6.06000000       3.49874263       8.70931758        0       0.00000000      -0.00000000      -0.00000485
O        4.54500000       4.37342829       7.76991976        1       0.00000000       0.00000000       0.00001820
O        6.06000000       3.49874263      12.23008024        3       0.00000000       0.00000000      -0.00001820
C        3.03000000       5.24811395      10.00000000        2       0.00000000       0.00000000      -0.00000000
Ti       3.03000000       6.99748526      11.29068242        0      -0.00000000      -0.00000000       0.00000485
Ti       4.54500000       6.12279960       8.70931758        0      -0.00000000       0.00000000      -0.00000485
O        3.03000000       6.99748526       7.76991976        1      -0.00000000      -0.00000000       0.00001820
O        4.54500000       6.12279960      12.23008024        3       0.00000000       0.00000000      -0.00001820
C        1.51500000       7.87217092      10.00000000        2       0.00000000       0.00000000      -0.00000000
Ti       1.51500000       9.62154224      11.29068242        0      -0.00000000      -0.00000000       0.00000485
Ti       3.03000000       8.74685658       8.70931758        0      -0.00000000       0.00000000      -0.00000485
O        1.51500000       9.62154224       7.76991976        1      -0.00000000       0.00000000       0.00001820
O        3.03000000       8.74685658      12.23008024        3       0.00000000      -0.00000000      -0.00001820
C        9.09000000       0.00000000      10.00000000        2      -0.00000000      -0.00000000      -0.00000000
Ti       9.09000000       1.74937132      11.29068242        0      -0.00000000      -0.00000000       0.00000485
Ti      10.60500000       0.87468566       8.70931758        0      -0.00000000       0.00000000      -0.00000485
O        9.09000000       1.74937132       7.76991976        1       0.00000000       0.00000000       0.00001820
O       10.60500000       0.87468566      12.23008024        3      -0.00000000       0.00000000      -0.00001820
C        7.57500000       2.62405697      10.00000000        2      -0.00000000      -0.00000000      -0.00000000
Ti       7.57500000       4.37342829      11.29068242        0      -0.00000000       0.00000000       0.00000485
Ti       9.09000000       3.49874263       8.70931758        0       0.00000000      -0.00000000      -0.00000485
O        7.57500000       4.37342829       7.76991976        1       0.00000000      -0.00000000       0.00001820
O        9.09000000       3.49874263      12.23008024        3      -0.00000000       0.00000000      -0.00001820
C        6.06000000       5.24811395      10.00000000        2       0.00000000      -0.00000000      -0.00000000
Ti       6.06000000       6.99748526      11.29068242        0      -0.00000000       0.00000000       0.00000485
Ti       7.57500000       6.12279960       8.70931758        0       0.00000000      -0.00000000      -0.00000485
O        6.06000000       6.99748526       7.76991976        1       0.00000000      -0.00000000       0.00001820
O        7.57500000       6.12279960      12.23008024        3       0.00000000      -0.00000000      -0.00001820
C        4.54500000       7.87217092      10.00000000        2      -0.00000000      -0.00000000      -0.00000000
Ti       4.54500000       9.62154224      11.29068242        0       0.00000000      -0.00000000       0.00000485
Ti       6.06000000       8.74685658       8.70931758        0      -0.00000000       0.00000000      -0.00000485
O        4.54500000       9.62154224       7.76991976        1       0.00000000       0.00000000       0.00001820
O        6.06000000       8.74685658      12.23008024        3       0.00000000       0.00000000      -0.00001820
