5
Lattice="3.03 0.0 0.0 -1.515 2.624056973466849 0.0 0.0 0.0 20.0" Properties=species:S:1:pos:R:3:tags:I:1:forces:R:3 energy=-46.50555285324008 stress="0.009601303367432885 -6.358334315702296e-17 -3.109099471296794e-16 -6.358334315702296e-17 0.00960130336745669 -1.66317400498353e-14 -3.109099471296794e-16 -1.66317400498353e-14 0.002561239759652148" pbc="T T F"
C        0.00000000       0.00000000      10.00000000        2       0.00000000       0.00000000       0.00000000
Ti       0.00000000       1.74937132       8.81065537        0      -0.00000000      -0.00000000       0.00005534
Ti       1.51500000       0.87468566      11.18934463        0      -0.00000000       0.00000000      -0.00005534
O       -0.00000000       1.74937132      11.92800861        3       0.00000000       0.00000000       0.00006020
O        1.51500000       0.87468566       8.07199139        1       0.00000000      -0.00000000      -0.00006020
