80
Lattice="12.12 0.0 0.0 -6.06 10.496227893867395 0.0 0.0 0.0 20.0" Properties=species:S:1:pos:R:3:forces:R:3 energy=-715.99951171875 free_energy=-715.99951171875 stress="-0.00046817181282676756 -7.292093040511816e-10 2.5799551384153574e-09 -7.292093040511816e-10 -0.0004681662830989808 5.029340055529019e-09 2.5799551384153574e-09 5.029340055529019e-09 8.074288793125106e-09" pbc="T T F"
C       -0.00000252      -0.00000017      10.00000190       0.00001526       0.00001480       0.00002044
Ti      -0.00000094       1.74936567       8.68045494       0.00001183       0.00001944       0.00001363
Ti       1.51500132       0.87468777      11.31953365      -0.00002691       0.00001410      -0.00001031
O        0.00000055       1.74937466      12.24149827      -0.00000320      -0.00002088      -0.00000179
O        1.51499982       0.87468017       7.75849373      -0.00001474       0.00001463       0.00002831
C       -1.51500312       2.62405460      10.00000034       0.00002375      -0.00000763      -0.00002012
Ti      -1.51499963       4.37342393       8.68045849       0.00001681       0.00000916       0.00000744
Ti       0.00000050       3.49874366      11.31953342       0.00002584       0.00003323       0.00003231
O       -1.51499854       4.37342802      12.24149859       0.00000700       0.00000678      -0.00002295
O       -0.00000139       3.49873915       7.75849134      -0.00000117      -0.00001523       0.00002652
C       -3.02999901       5.24810788       9.99999591       0.00000629       0.00005636      -0.00001409
Ti      -3.02999559       6.99748455       8.68045687      -0.00000087       0.00000263       0.00003062
Ti      -1.51500141       6.12279711      11.31952626       0.00003322      -0.00000452       0.00005420
O       -3.02999603       6.99748409      12.24150028      -0.00002215       0.00000128      -0.00002170
O       -1.51499809       6.12279745       7.75849385      -0.00001502       0.00001540       0.00001186
C       -4.54499890       7.87217144      10.00000312       0.00000897      -0.00002136      -0.00000342
Ti      -4.54499751       9.62154139       8.68047733       0.00000042       0.00001084      -0.00004742
Ti      -3.03000151       8.74685778      11.31954354       0.00000284      -0.00002721      -0.00003482
O       -4.54500056       9.62154540      12.24150065       0.00001219      -0.00000558       0.00004375
O       -3.03000190       8.74685595       7.75850467       0.00002163       0.00000752      -0.00002933
C        3.03000169      -0.00000129      10.00000112      -0.00001365       0.00002326       0.00002293
Ti       3.02999428       1.74937027       8.68044745       0.00000746       0.00002543       0.00004052
Ti       4.54500279       0.87468608      11.31955062      -0.00001401       0.00000321      -0.00007837
O        3.02999903       1.74937527      12.24150020       0.00001499      -0.00004964       0.00000703
O        4.54499917       0.87468759       7.75850290       0.00000246      -0.00000520      -0.00002950
C        1.51499938       2.62405428       9.99999224       0.00000607      -0.00000220       0.00002518
Ti       1.51499579       4.37342502       8.68045786       0.00001634       0.00001044      -0.00001483
Ti       3.03000541       3.49873849      11.31953673      -0.00003631       0.00008944       0.00000891
O        1.51500378       4.37342899      12.24150134      -0.00002992      -0.00001542      -0.00007427
O        3.02999807       3.49874035       7.75849185       0.00001183       0.00000371       0.00004482
C        0.00000034       5.24810631       9.99999439       0.00000817       0.00004908       0.00000158
Ti      -0.00000277       6.99748922       8.68045046       0.00002841      -0.00001292       0.00002791
Ti       1.51500273       6.12280024      11.31954490      -0.00001219      -0.00002656       0.00001918
O        0.00000023       6.99748104      12.24149667      -0.00000755       0.00003308      -0.00004727
O        1.51499984       6.12279970       7.75850121       0.00000147       0.00001307       0.00000066
C       -1.51499899       7.87217405       9.99999600      -0.00000858      -0.00005216       0.00000162
Ti      -1.51500103       9.62154474       8.68046250       0.00000600      -0.00001142      -0.00000350
Ti      -0.00000138       8.74685846      11.31953695       0.00002646      -0.00007401      -0.00000086
O       -1.51499949       9.62154122      12.24150118      -0.00001138       0.00001783       0.00003678
O        0.00000005       8.74686197       7.75849741      -0.00001085      -0.00002591       0.00000918
C        6.05999582       0.00000179      10.00000235       0.00001690       0.00001968       0.00003276
Ti       6.05999855       1.74937607       8.68046483      -0.00001647      -0.00001068       0.00000821
Ti       7.57499956       0.87468916      11.31954793       0.00001808      -0.00002666      -0.00006355
O        6.06000047       1.74937643      12.24150463      -0.00000003      -0.00003473       0.00000995
O        7.57499460       0.87468579       7.75850405       0.00002559       0.00000534      -0.00003433
C        4.54500040       2.62405715       9.99999932      -0.00000889      -0.00000714       0.00000166
Ti       4.54499927       4.37342584       8.68046280      -0.00002283       0.00002283      -0.00002466
Ti       6.06000368       3.49874302      11.31953334      -0.00002732       0.00003856      -0.00000541
O        4.54500182       4.37342662      12.24149759       0.00000554       0.00002525      -0.00001758
O        6.05999895       3.49874491       7.75849130       0.00000017      -0.00002865       0.00002933
C        3.03000164       5.24811023      10.00000006      -0.00000678       0.00003772      -0.00002491
Ti       3.03000057       6.99748674       8.68045907       0.00000253      -0.00002016      -0.00000530
Ti       4.54500099       6.12279861      11.31953239      -0.00001216       0.00000945       0.00005154
O        3.02999855       6.99748635      12.24149896       0.00003172      -0.00000567      -0.00005037
O        4.54500055       6.12279854       7.75850182       0.00000175       0.00002409      -0.00001186
C        1.51499559       7.87217464       9.99999947       0.00002715      -0.00004351      -0.00001452
Ti       1.51499798       9.62154701       8.68046664       0.00000520      -0.00002886      -0.00002097
Ti       3.02999809       8.74685897      11.31952694      -0.00000913      -0.00004227       0.00004630
O        1.51499977       9.62154167      12.24149405      -0.00000985       0.00002733       0.00005400
O        3.02999795       8.74685728       7.75849908      -0.00000449      -0.00000665      -0.00000060
C        9.08999548       0.00000490      10.00000140       0.00001465      -0.00001458       0.00002397
Ti       9.08999682       1.74936810       8.68045929       0.00000799       0.00000853       0.00002888
Ti      10.60499638       0.87469028      11.31954849       0.00003347      -0.00000713      -0.00005157
O        9.09000029       1.74937908      12.24150738      -0.00002556      -0.00006875      -0.00001103
O       10.60499796       0.87467854       7.75850336       0.00000200       0.00003417      -0.00003839
C        7.57499923       2.62405858       9.99999778      -0.00000448      -0.00001154       0.00000520
Ti       7.57499961       4.37342525       8.68044478       0.00000430      -0.00000064       0.00007038
Ti       9.09000284       3.49874243      11.31953692       0.00000581       0.00005884      -0.00001116
O        7.57500217       4.37342876      12.24149618      -0.00000882       0.00000892       0.00000668
O        9.09000059       3.49873838       7.75849322      -0.00000084       0.00000405       0.00000048
C        6.06000342       5.24811227       9.99999474      -0.00000906       0.00003222       0.00002442
Ti       6.06000508       6.99748410       8.68045911      -0.00004759      -0.00000568       0.00001226
Ti       7.57500216       6.12280110      11.31954022      -0.00001636      -0.00000052      -0.00000514
O        6.06000158       6.99748556      12.24149983      -0.00001024       0.00000071      -0.00002950
O        7.57500285       6.12279950       7.75849718      -0.00000523       0.00000885      -0.00002098
C        4.54500206       7.87217535       9.99999843      -0.00002122      -0.00003617       0.00000397
Ti       4.54499963       9.62153567       8.68045797      -0.00000348       0.00001659       0.00001849
Ti       6.05999967       8.74686416      11.31954821      -0.00001355      -0.00007678      -0.00003824
O        4.54499633       9.62154186      12.24149942       0.00001413       0.00002881       0.00002486
O        6.06000306       8.74685998       7.75850617      -0.00001987      -0.00003237      -0.00003469
