80
Lattice="12.12 0.0 0.0 -6.06 10.496227893867395 0.0 0.0 0.0 40.0" Properties=species:S:1:pos:R:3:tags:I:1:forces:R:3 energy=-734.4062514860293 stress="0.003322863034170329 1.2854870333854215e-17 1.1933948309627243e-17 1.2854870333854215e-17 0.0033228630341703338 -2.6777356830999695e-19 1.1933948309627243e-17 -2.6777356830999695e-19 0.0013605479806918083" pbc="T T F"
C       -0.00000000       0.00000000      10.00000000        2       0.00000000      -0.00000000       0.00000000
Ti       0.00000000       1.74937132      11.31179144        0      -0.00000000      -0.00000000       0.00000032
Ti       1.51500000       0.87468566       8.68820856        0      -0.00000000       0.00000000      -0.00000032
O        0.00000000       1.74937132       7.76840455        1      -0.00000000       0.00000000      -0.00000010
O        1.51500000       0.87468566      12.23159545        3       0.00000000       0.00000000       0.00000010
C       -1.51500000       2.62405697      10.00000000        2      -0.00000000       0.00000000       0.00000000
Ti      -1.51500000       4.37342829      11.31179144        0       0.00000000       0.00000000       0.00000032
Ti      -0.00000000       3.49874263       8.68820856        0       0.00000000      -0.00000000      -0.00000032
O       -1.51500000       4.37342829       7.76840455        1       0.00000000       0.00000000      -0.00000010
O       -0.00000000       3.49874263      12.23159545        3       0.00000000      -0.00000000       0.00000010
C       -3.03000000       5.24811395      10.00000000        2       0.00000000      -0.00000000      -0.00000000
Ti      -3.03000000       6.99748526      11.31179144        0       0.00000000       0.00000000       0.00000032
Ti      -1.51500000       6.12279960       8.68820856        0      -0.00000000       0.00000000      -0.00000032
O       -3.03000000       6.99748526       7.76840455        1       0.00000000      -0.00000000      -0.00000010
O       -1.51500000       6.12279960      12.23159545        3      -0.00000000      -0.00000000       0.00000010
C       -4.54500000       7.87217092      10.00000000        2      -0.00000000       0.00000000       0.00000000
Ti      -4.54500000       9.62154224      11.31179144        0       0.00000000       0.00000000       0.00000032
Ti      -3.03000000       8.74685658       8.68820856        0      -0.00000000      -0.00000000      -0.00000032
O       -4.54500000       9.62154224       7.76840455        1      -0.00000000       0.00000000      -0.00000010
O       -3.03000000       8.74685658      12.23159545        3       0.00000000      -0.00000000       0.00000010
C        3.03000000       0.00000000      10.00000000        2      -0.00000000       0.00000000       0.00000000
Ti       3.03000000       1.74937132      11.31179144        0      -0.00000000      -0.00000000       0.00000032
Ti       4.54500000       0.87468566       8.68820856        0      -0.00000000      -0.00000000      -0.00000032
O        3.03000000       1.74937132       7.76840455        1      -0.00000000       0.00000000      -0.00000010
O        4.54500000       0.87468566      12.23159545        3       0.00000000       0.00000000       0.00000010
C        1.51500000       2.62405697      10.00000000        2       0.00000000       0.00000000      -0.00000000
Ti       1.51500000       4.37342829      11.31179144        0      -0.00000000       0.00000000       0.00000032
Ti       3.03000000       3.49874263       8.68820856        0      -0.00000000      -0.00000000      -0.00000032
O        1.51500000       4.37342829       7.76840455        1      -0.00000000      -0.00000000      -0.00000010
O        3.03000000       3.49874263      12.23159545        3       0.00000000       0.00000000       0.00000010
C        0.00000000       5.24811395      10.00000000        2      -0.00000000      -0.00000000       0.00000000
Ti       0.00000000       6.99748526      11.31179144        0      -0.00000000      -0.00000000       0.00000032
Ti       1.51500000       6.12279960       8.68820856        0      -0.00000000      -0.00000000      -0.00000032
O        0.00000000       6.99748526       7.76840455        1      -0.00000000      -0.00000000      -0.00000010
O        1.51500000       6.12279960      12.23159545        3      -0.00000000       0.00000000       0.00000010
C       -1.51500000       7.87217092      10.00000000        2       0.00000000       0.00000000       0.00000000
Ti      -1.51500000       9.62154224      11.31179144        0      -0.00000000      -0.00000000       0.00000032
Ti      -0.00000000       8.74685658       8.68820856        0       0.00000000      -0.00000000      -0.00000032
O       -1.51500000       9.62154224       7.76840455        1      -0.00000000      -0.00000000      -0.00000010
O        0.00000000       8.74685658      12.23159545        3      -0.00000000      -0.00000000       0.00000010
C        6.06000000       0.00000000      10.00000000        2       0.00000000       0.00000000      -0.00000000
Ti       6.06000000       1.74937132      11.31179144        0      -0.00000000      -0.00000000       0.00000032
Ti       7.57500000       0.87468566       8.68820856        0       0.00000000      -0.00000000      -0.00000032
O        6.06000000       1.74937132       7.76840455        1       0.00000000      -0.00000000      -0.00000010
O        7.57500000       0.87468566      12.23159545        3       0.00000000       0.00000000       0.00000010
C        4.54500000       2.62405697      10.00000000        2       0.00000000       0.00000000      -0.00000000
Ti       4.54500000       4.37342829      11.31179144        0       0.00000000      -0.00000000       0.00000032
Ti       6.06000000       3.49874263       8.68820856        0      -0.00000000      -0.00000000      -0.00000032
O        4.54500000       4.37342829       7.76840455        1      -0.00000000       0.00000000      -0.00000010
O        6.06000000       3.49874263      12.23159545        3      -0.00000000      -0.00000000       0.00000010
C        3.03000000       5.24811395      10.00000000        2      -0.00000000      -0.00000000      -0.00000000
Ti       3.03000000       6.99748526      11.31179144        0       0.00000000      -0.00000000       0.00000032
Ti       4.54500000       6.12279960       8.68820856        0      -0.00000000       0.00000000      -0.00000032
O        3.03000000       6.99748526       7.76840455        1       0.00000000      -0.00000000      -0.00000010
O        4.54500000       6.12279960      12.23159545        3      -0.00000000      -0.00000000       0.00000010
C        1.51500000       7.87217092      10.00000000        2       0.00000000      -0.00000000      -0.00000000
Ti       1.51500000       9.62154224      11.31179144        0      -0.00000000       0.00000000       0.00000032
Ti       3.03000000       8.74685658       8.68820856        0       0.00000000      -0.00000000      -0.00000032
O        1.51500000       9.62154224       7.76840455        1      -0.00000000       0.00000000      -0.00000010
O        3.03000000       8.74685658      12.23159545        3      -0.00000000      -0.00000000       0.00000010
C        9.09000000       0.00000000      10.00000000        2      -0.00000000      -0.00000000      -0.00000000
Ti       9.09000000       1.74937132      11.31179144        0       0.00000000       0.00000000       0.00000032
Ti      10.60500000       0.87468566       8.68820856        0       0.00000000      -0.00000000      -0.00000032
O        9.09000000       1.74937132       7.76840455        1       0.00000000       0.00000000      -0.00000010
O       10.60500000       0.87468566      12.23159545        3      -0.00000000      -0.00000000       0.00000010
C        7.57500000       2.62405697      10.00000000        2      -0.00000000      -0.00000000      -0.00000000
Ti       7.57500000       4.37342829      11.31179144        0      -0.00000000       0.00000000       0.00000032
Ti       9.09000000       3.49874263       8.68820856        0       0.00000000       0.00000000      -0.00000032
O        7.57500000       4.37342829       7.76840455        1      -0.00000000       0.00000000      -0.00000010
O        9.09000000       3.49874263      12.23159545        3       0.00000000       0.00000000       0.00000010
C        6.06000000       5.24811395      10.00000000        2      -0.00000000      -0.00000000       0.00000000
Ti       6.06000000       6.99748526      11.31179144        0      -0.00000000      -0.00000000       0.00000032
Ti       7.57500000       6.12279960       8.68820856        0       0.00000000       0.00000000      -0.00000032
O        6.06000000       6.99748526       7.76840455        1       0.00000000      -0.00000000      -0.00000010
O        7.57500000       6.12279960      12.23159545        3       0.00000000       0.00000000       0.00000010
C        4.54500000       7.87217092      10.00000000        2       0.00000000       0.00000000       0.00000000
Ti       4.54500000       9.62154224      11.31179144        0       0.00000000       0.00000000       0.00000032
Ti       6.06000000       8.74685658       8.68820856        0       0.00000000      -0.00000000      -0.00000032
O        4.54500000       9.62154224       7.76840455        1       0.00000000      -0.00000000      -0.00000010
O        6.06000000       8.74685658      12.23159545        3       0.00000000      -0.00000000       0.00000010
