5
Lattice="3.03 0.0 0.0 -1.515 2.624056973466849 0.0 0.0 0.0 80.0" Properties=species:S:1:pos:R:3:tags:I:1:forces:R:3 energy=-45.900390717876824 stress="0.0014115422179247206 1.6074302146796742e-18 -3.7665330056479396e-17 1.6074302146796742e-18 0.001411542233052818 -3.5610265583786694e-12 -3.7665330056479396e-17 -3.5610265583786694e-12 0.000604041449357336" pbc="T T F"
C        0.00000000      -0.00000000      10.00000000        2      -0.00000000       0.00000006      -0.00000000
Ti      -0.00000000       1.74937132       8.68820856        0       0.00000000       0.00000000      -0.00000032
Ti       1.51500000       0.87468567      11.31179144        0       0.00000000      -0.00000003       0.00000032
O       -0.00000000       1.74937132      12.23159545        3       0.00000000      -0.00000001       0.00000010
O        1.51500000       0.87468566       7.76840455        1       0.00000000      -0.00000003      -0.00000010
