130
Lattice="12.12 0.0 0.0 -6.06 10.496227893867395 0.0 0.0 0.0 40.0" Properties=species:S:1:pos:R:3:tags:I:1:forces:R:3 energy=-1200.4668040167844 stress="0.002815454980101591 5.594053997252321e-09 -1.4317459286556229e-09 5.594053997252321e-09 0.0028154672188672267 6.830172487070225e-08 -1.4317459286556229e-09 6.830172487070225e-08 0.0020732240937637115" pbc="T T F"
C       -0.00000271      -0.00000690      10.00190587        2      -0.00000036      -0.00006088       0.00257386
Ti      -0.00002174       1.74941843       8.69026362        0       0.00002778       0.00006171       0.00197277
Ti       1.51500972       0.87470768      11.30886592        0       0.00015127       0.00006459       0.00028203
O       -0.00014867       1.75041319      12.23159545        3      -0.00000064      -0.00029281       0.05736399
O        1.51497639       0.87465424       7.76934178        1      -0.00007938      -0.00004071       0.00210662
C       -1.51507559       2.62412516      10.00171853        2      -0.00001887       0.00013283       0.00204304
Ti      -1.51503858       4.37347370       8.69023991        0      -0.00004124      -0.00005076       0.00116359
Ti      -0.00001958       3.49895604      11.30870716        0      -0.00002612       0.00031647      -0.00041796
O       -1.51508018       4.37437007      12.23159545        3      -0.00008039      -0.00003132       0.07218636
O        0.00000694       3.49865364       7.76923143        1       0.00005580      -0.00034624       0.00140443
C       -3.03006596       5.24806692      10.00144419        2       0.00006475       0.00001277       0.00161395
Ti      -3.02995950       6.99743859       8.69026245        0      -0.00001852      -0.00002974       0.00113158
Ti      -1.51476740       6.12285553      11.30888281        0       0.00018837       0.00010586      -0.00098634
O       -3.02909054       6.99677985      12.23159545        3      -0.00015024       0.00017104       0.08096743
O       -1.51503846       6.12277386       7.76917268        1      -0.00013819      -0.00009819       0.00074354
C       -4.54496454       7.87207475      10.00175396        2       0.00011153      -0.00001635       0.00201969
Ti      -4.54496635       9.62149195       8.69029823        0       0.00002233      -0.00001878       0.00193484
Ti      -3.02982167       8.74666952      11.30877083        0       0.00028518      -0.00011484      -0.00047286
O       -4.54423848       9.62087909      12.23159545        3      -0.00013824       0.00010533       0.05341430
O       -3.03007074       8.74691741       7.76925432        1      -0.00024650       0.00019601       0.00141058
C        3.03010533      -0.00000431      10.00186687        2       0.00002478      -0.00006854       0.00208637
Ti       3.03010217       1.74942625       8.69031636        0       0.00003220       0.00005538       0.00181873
Ti       4.54508420       0.87452235      11.30893088        0       0.00004117       0.00009517      -0.00023853
O        3.03043565       1.74973367      12.23159545        3      -0.00003940      -0.00011506       0.04962624
O        4.54495668       0.87468070       7.76921552        1      -0.00010180       0.00012456       0.00146676
C        1.51507405       2.62413051      10.00178849        2      -0.00004492       0.00006831       0.00218188
Ti       1.51502612       4.37347983       8.69024724        0       0.00010010      -0.00010354       0.00134308
Ti       3.02997817       3.49890998      11.30889226        0       0.00000408       0.00028318      -0.00021541
O        1.51489595       4.37438600      12.23159545        3      -0.00034305      -0.00048732       0.06916501
O        3.02999124       3.49868649       7.76919972        1       0.00004929      -0.00018185       0.00137500
C       -0.00001672       5.24813139      10.00126814        2      -0.00002242       0.00009308       0.00174428
Ti       0.00000183       6.99749537       8.69023809        0       0.00002596       0.00000225       0.00071962
Ti       1.51479720       6.12282238      11.30886937        0      -0.00018809      -0.00001448      -0.00090676
O        0.00013186       6.99771456      12.23159545        3      -0.00002478      -0.00008184       0.11826471
O        1.51504000       6.12276558       7.76918288        1       0.00016295      -0.00016036       0.00079645
C       -1.51501612       7.87211578      10.00124098        2       0.00012222      -0.00000082       0.00172023
Ti      -1.51494706       9.62152074       8.69030907        0      -0.00004948       0.00008615       0.00134412
Ti      -0.00003884       8.74667602      11.30889013        0      -0.00007564      -0.00001663      -0.00101037
O       -1.51416230       9.62082769      12.23159545        3      -0.00018519       0.00004607       0.07722887
O       -0.00000698       8.74692270       7.76921385        1      -0.00004992       0.00022955       0.00087068
C        6.05999687       0.00013316      10.00152078        2       0.00005918      -0.00006354       0.00180265
Ti       6.06002731       1.74939010       8.69032001        0       0.00000416       0.00000752       0.00142599
Ti       7.57500166       0.87446952      11.30894276        0       0.00007240      -0.00006472      -0.00037874
O        6.06030109       1.74982898      12.23159545        3      -0.00018335      -0.00024486       0.11022858
O        7.57502924       0.87467023       7.76920005        1       0.00008234       0.00009056       0.00139281
C        4.54495381       2.62402086      10.00154503        2       0.00015191       0.00015438       0.00203957
Ti       4.54504722       4.37344795       8.69031142        0       0.00003761       0.00002711       0.00147355
Ti       6.05998500       3.49872922      11.30899778        0       0.00000109       0.00000298      -0.00048583
O        4.54564117       4.37360763      12.23159545        3      -0.00010842      -0.00006365       0.11168306
O        6.05998638       3.49871970       7.76919500        1      -0.00003787      -0.00006469       0.00130457
C        3.03008679       5.24805530      10.00146821        2      -0.00003918       0.00009762       0.00184798
Ti       3.02994721       6.99746365       8.69027315        0      -0.00002255      -0.00004847       0.00126889
Ti       4.54480516       6.12291249      11.30892559        0      -0.00021430       0.00006870      -0.00042906
O        3.02892054       6.99691532      12.23159545        3       0.00012115       0.00031207       0.08971589
O        4.54501117       6.12282810       7.76918535        1       0.00007790       0.00007632       0.00124677
C        1.51501616       7.87214752      10.00119251        2      -0.00016206      -0.00000560       0.00164195
Ti       1.51495514       9.62151050       8.69030599        0      -0.00001379      -0.00000874       0.00129995
Ti       3.02979202       8.74670839      11.30881660        0      -0.00030580      -0.00014297      -0.00047619
O        1.51402950       9.62079077      12.23159545        3       0.00012654       0.00010495       0.08924297
O        3.03007233       8.74691321       7.76923514        1       0.00030393       0.00018066       0.00142584
C        9.08990563      -0.00002585      10.00183189        2      -0.00008998       0.00000245       0.00209713
Ti       9.08988889       1.74944489       8.69031757        0      -0.00005476       0.00006210       0.00156272
Ti      10.60492979       0.87473936      11.30885456        0       0.00011951       0.00002642       0.00014622
O        9.08958808       1.74985844      12.23159545        3       0.00006841      -0.00002633       0.05483461
O       10.60503289       0.87464995       7.76931838        1       0.00012356      -0.00007350       0.00206236
C        7.57504805       2.62402109      10.00140341        2      -0.00002634       0.00005529       0.00200098
Ti       7.57496074       4.37342111       8.69032885        0      -0.00007866       0.00000134       0.00138113
Ti       9.09003908       3.49892715      11.30890598        0       0.00004622       0.00020698      -0.00051984
O        7.57447820       4.37335018      12.23159545        3       0.00025896       0.00015434       0.11635939
O        9.09001264       3.49869704       7.76917670        1      -0.00006170      -0.00015613       0.00126417
C        6.05999742       5.24818217      10.00131580        2      -0.00000621      -0.00002952       0.00182175
Ti       6.06000854       6.99734388       8.69030136        0      -0.00000354      -0.00014102       0.00156084
Ti       7.57519583       6.12280901      11.30893599        0       0.00011137       0.00003855      -0.00060443
O        6.06009577       6.99680020      12.23159545        3       0.00012740       0.00003568       0.06084240
O        7.57498193       6.12283398       7.76917945        1      -0.00010989       0.00004734       0.00121444
C        4.54494107       7.87210292      10.00177656        2      -0.00006333      -0.00004209       0.00218908
Ti       4.54495679       9.62150633       8.69029835        0       0.00000648      -0.00002926       0.00183920
Ti       6.06000429       8.74676152      11.30886000        0      -0.00002030      -0.00003710       0.00013007
O        4.54421209       9.62103980      12.23159545        3       0.00020208       0.00017676       0.05019853
O        6.06000106       8.74691477       7.76932178        1      -0.00000209       0.00014162       0.00199685
C        0.04471285       0.06745233      17.30527966       10       0.00598055       0.00154299      -0.00975636
C        1.25693746       0.76726178      17.30527966       10       0.00336306       0.00199276      -0.00900578
C       -1.16719230       2.16703790      17.30527966       10      -0.00099765       0.00048323      -0.01375267
C        0.04512264       2.86695158      17.30527966       10      -0.00242597       0.00143522      -0.01165329
C       -2.37942946       4.26615354      17.30527966       10       0.00097163      -0.00086372      -0.03823565
C       -1.16688959       4.96625344      17.30527966       10       0.00085039       0.00107578      -0.03933355
C       -3.59130500       6.36498049      17.30527966       10       0.00311582      -0.00100939      -0.03499704
C       -2.37863928       7.06503750      17.30527966       10       0.00204368      -0.00121864      -0.03854424
C       -4.80281238       8.46413291      17.30527966       10      -0.00015810      -0.00069357      -0.01747696
C       -3.59046322       9.16400997      17.30527966       10      -0.00255358      -0.00131658      -0.01334340
C        2.46904384       0.06750932      17.30527966       10       0.00454500       0.00205996      -0.01661338
C        3.68107461       0.76714386      17.30527966       10       0.00448693       0.00082099      -0.03782711
C        1.25731005       2.16692394      17.30527966       10      -0.00119768       0.00285921      -0.01330413
C        2.46918255       2.86685448      17.30527966       10      -0.00119108      -0.00020797      -0.03720136
C        0.04496250       4.26626584      17.30527966       10       0.00038061       0.00114118      -0.03654879
C        1.25683930       4.96634786      17.30527966       10       0.00069805      -0.00012088      -0.03792705
C       -1.16716785       6.36528590      17.30527966       10       0.00204332       0.00157355      -0.02135383
C        0.04495843       7.06526292      17.30527966       10       0.00142705      -0.00161666      -0.01287884
C       -2.37868823       8.46440028      17.30527966       10      -0.00091146      -0.00071140      -0.03405735
C       -1.16650480       9.16397758      17.30527966       10      -0.00094519      -0.00148604      -0.03771098
C        4.89305738       0.06778105      17.30527966       10       0.00295969       0.00028946      -0.03567852
C        6.10489971       0.76707362      17.30527966       10       0.00221009       0.00200744      -0.02039001
C        3.68154469       2.16706064      17.30527966       10      -0.00165397      -0.00012219      -0.02216507
C        4.89325119       2.86656741      17.30527966       10      -0.00180374      -0.00034821      -0.02161125
C        2.46936356       4.26620334      17.30527966       10       0.00007721      -0.00072063      -0.03866882
C        3.68095638       4.96587451      17.30527966       10      -0.00010507       0.00075057      -0.02048871
C        1.25688938       6.36535271      17.30527966       10       0.00177184       0.00037466      -0.02191081
C        2.46840957       7.06503811      17.30527966       10       0.00164782       0.00018344      -0.03799202
C        0.04516315       8.46465658      17.30527966       10      -0.00223304      -0.00206663      -0.02268236
C        1.25691163       9.16385295      17.30527966       10      -0.00296630      -0.00035273      -0.03809931
C        7.31670936       0.06770094      17.30527966       10       0.00089423       0.00140179      -0.03061339
C        8.52855192       0.76712208      17.30527966       10       0.00084746       0.00066960      -0.04040686
C        6.10520510       2.16724534      17.30527966       10      -0.00148837       0.00156042      -0.03328477
C        7.31707587       2.86660766      17.30527966       10      -0.00208039      -0.00165387      -0.02107832
C        4.89354116       4.26589864      17.30527966       10      -0.00073103       0.00012540      -0.03172044
C        6.10500203       4.96581710      17.30527966       10      -0.00036896      -0.00124894      -0.02184542
C        3.68103849       6.36500897      17.30527966       10       0.00117695       0.00025340      -0.03033347
C        4.89264239       7.06492813      17.30527966       10       0.00125124      -0.00288104      -0.03991060
C        2.46908425       8.46442532      17.30527966       10      -0.00442513      -0.00076990      -0.02970286
C        3.68082979       9.16408892      17.30527966       10      -0.00447244      -0.00201805      -0.01444726
C        9.74055507       0.06762760      17.30527966       10       0.00258069       0.00134736      -0.02258775
C       10.95263483       0.76734387      17.30527966       10       0.00018479       0.00064830      -0.00934638
C        8.52866312       2.16705971      17.30527966       10      -0.00208217       0.00114719      -0.02726021
C        9.74100767       2.86680291      17.30527966       10      -0.00310192       0.00091225      -0.03913788
C        7.31663787       4.26594257      17.30527966       10      -0.00086298      -0.00118507      -0.02666646
C        8.52906072       4.96586732      17.30527966       10      -0.00098362       0.00077004      -0.01974889
C        6.10486333       6.36480598      17.30527966       10       0.00247393      -0.00152805      -0.02914929
C        7.31707117       7.06480802      17.30527966       10       0.00101332      -0.00053393      -0.03927150
C        4.89317792       8.46425512      17.30527966       10      -0.00326988      -0.00199032      -0.02307007
C        6.10520983       9.16407257      17.30527966       10      -0.00589008      -0.00151052      -0.01069472
