132
Lattice="12.12 0.0 0.0 -6.06 10.496227893867395 0.0 0.0 0.0 40.0" Properties=species:S:1:pos:R:3:tags:I:1:forces:R:3 energy=-1209.2009698665768 stress="0.0027979148743450368 1.6869661485300191e-06 -3.252973359704724e-07 1.6869661485300191e-06 0.002801163838878083 1.8894680121465654e-06 -3.252973359704724e-07 1.8894680121465654e-06 0.0020853550793072605" pbc="T T F"
C        0.00109504       0.00431553      10.00367374        2      -0.00199838       0.00018534      -0.00059975
Ti       0.00181397       1.75294774       8.69346886        0       0.00156869      -0.00075256       0.00071830
Ti       1.51580599       0.87865587      11.31248972        0      -0.00045589       0.00012123      -0.00304042
O        0.00033496       1.75368544      12.23159545        3      -0.00016666      -0.00031382       0.09821140
O        1.51449320       0.87933367       7.77156609        1       0.00166398      -0.00002502      -0.00291465
C       -1.51410437       2.62831915      10.00714778        2      -0.00042062       0.00000435      -0.00189114
Ti      -1.51534250       4.37851050       8.69287818        0       0.00099418       0.00154375       0.00008026
Ti      -0.00332450       3.50438239      11.31945208        0      -0.00044424      -0.00069481      -0.00092740
O       -1.51663353       4.37880071      12.23159545        3      -0.00050228       0.00114930       0.09817562
O       -0.00059950       3.50255589       7.77499073        1       0.00006018       0.00048449      -0.00116398
C       -3.03006492       5.25461758      10.00097462        2      -0.00086318      -0.00171702      -0.00034799
Ti      -3.03034499       7.00260234       8.69033468        0       0.00047074       0.00015391       0.00225050
Ti      -1.51549782       6.12801444      11.31243759        0      -0.00065187      -0.00024914      -0.00089900
O       -3.03145744       7.00273446      12.23159545        3      -0.00057004      -0.00130418       0.15103764
O       -1.51459008       6.12668179       7.77212923        1       0.00064939       0.00073483      -0.00198351
C       -4.54503869       7.87641484      10.00218030        2      -0.00046994       0.00006298      -0.00060949
Ti      -4.54539439       9.62592054       8.69309663        0      -0.00038183       0.00093426       0.00212556
Ti      -3.03046722       8.75093586      11.31298639        0      -0.00010670       0.00013899      -0.00073515
O       -4.54548214       9.62587643      12.23159545        3      -0.00055686      -0.00013073       0.10283852
O       -3.03036339       8.75177460       7.77045124        1       0.00092805      -0.00001018       0.00055943
C        3.03023446       0.00450883      10.00285737        2       0.00091098      -0.00016877       0.00043725
Ti       3.02975030       1.75403774       8.69230418        0      -0.00099070       0.00059907       0.00230944
Ti       4.54594472       0.87997912      11.31313094        0       0.00051816       0.00039329       0.00087807
O        3.02984643       1.75382276      12.23159545        3       0.00007719       0.00109436       0.13864400
O        4.54457374       0.87911339       7.77020315        1       0.00070260       0.00013227       0.00198619
C        1.51558648       2.62807122      10.00356037        2      -0.00073264       0.00106647      -0.00037782
Ti       1.51517379       4.37763232       8.69458745        0       0.00086678       0.00041114       0.00109732
Ti       3.03040776       3.50354996      11.31134631        0      -0.00042458       0.00044174      -0.00013976
O        1.51456736       4.37627628      12.23159545        3      -0.00090123       0.00009214       0.13352976
O        3.02944977       3.50340475       7.77141985        1       0.00048995       0.00090941       0.00030996
C       -0.00013149       5.25282698      10.00460670        2       0.00011360      -0.00096819      -0.00160174
Ti       0.00037695       7.00193013       8.69352571        0       0.00018983       0.00012012       0.00088682
Ti       1.51522395       6.12756701      11.31174153        0       0.00023371      -0.00084547      -0.00051903
O       -0.00045063       7.00170686      12.23159545        3       0.00024598      -0.00115790       0.13458295
O        1.51482105       6.12683886       7.77240121        1       0.00014873       0.00064937       0.00049308
C       -1.51543106       7.87682268      10.00331616        2       0.00023886       0.00041836       0.00056659
Ti      -1.51494318       9.62589723       8.69114494        0      -0.00015423       0.00008008       0.00238245
Ti       0.00004921       8.75152720      11.31168432        0       0.00104244      -0.00054934       0.00112926
O       -1.51606423       9.62686188      12.23159545        3       0.00107901      -0.00049295       0.14781092
O        0.00059190       8.75104644       7.77141223        1       0.00017703       0.00023018       0.00211729
C        6.05897397       0.00428381      10.00243249        2       0.00149002       0.00054618       0.00213387
Ti       6.05940066       1.75368513       8.69011569        0      -0.00039607      -0.00019699       0.00169661
Ti       7.57479156       0.87941304      11.31100104        0      -0.00025890       0.00001132       0.00053691
O        6.06016197       1.75328520      12.23159545        3       0.00187287       0.00152443       0.13895267
O        7.57599926       0.87932446       7.77227877        1      -0.00059912      -0.00071550      -0.00177660
C        4.54560307       2.62847610      10.00201028        2       0.00034078       0.00089658       0.00056458
Ti       4.54487709       4.37758561       8.69120423        0      -0.00037174      -0.00011230       0.00161885
Ti       6.06138696       3.50404478      11.30744798        0       0.00071320       0.00071944       0.00105197
O        4.54543594       4.37770287      12.23159545        3       0.00056010       0.00040019       0.12707072
O        6.06055021       3.50310218       7.77053617        1       0.00023589       0.00035784      -0.00089895
C        3.03053026       5.25254004      10.00348296        2      -0.00060021      -0.00002581       0.00080342
Ti       3.03016488       7.00220359       8.69056595        0      -0.00019333      -0.00017965       0.00325151
Ti       4.54546580       6.12717818      11.31214399        0      -0.00023346       0.00039341       0.00037826
O        3.03161672       7.00270975      12.23159545        3      -0.00032662       0.00015465       0.13965272
O        4.54498018       6.12736735       7.77086517        1       0.00002160       0.00006398       0.00258892
C        1.51516091       7.87688901      10.00401343        2       0.00014498       0.00017764      -0.00003555
Ti       1.51492774       9.62573645       8.69358655        0      -0.00045586      -0.00020064       0.00084824
Ti       3.02953320       8.75234987      11.31138231        0       0.00127354       0.00062902       0.00025429
O        1.51498914       9.62721117      12.23159545        3       0.00160730       0.00105107       0.14187425
O        3.03041148       8.75224037       7.77255897        1      -0.00046553      -0.00010044       0.00047014
C        9.08993365       0.00542269      10.00476775        2       0.00085012      -0.00032358      -0.00111439
Ti       9.08972142       1.75408458       8.69248928        0      -0.00029720      -0.00110213      -0.00064347
Ti      10.60212353       0.88241288      11.32165337        0       0.00066382       0.00025273      -0.00077815
O        9.08822018       1.75593202      12.23159545        3      -0.00123575       0.00066682       0.08867576
O       10.60546914       0.88007271       7.77529036        1      -0.00069315       0.00034196      -0.00203416
C        7.57412045       2.62810091      10.00190449        2       0.00049293       0.00125264      -0.00042811
Ti       7.57579367       4.37773769       8.69152209        0      -0.00039139       0.00093928      -0.00064271
Ti       9.09199133       3.50297866      11.30052031        0       0.00056369      -0.00052753       0.00306499
O        7.58036967       4.37547966      12.23159545        3       0.00065502      -0.00067631       0.15950560
O        9.09136250       3.50249462       7.77142454        1      -0.00008051      -0.00007131      -0.00062104
C        6.06072902       5.25220682      10.00246655        2       0.00050946      -0.00036327       0.00074237
Ti       6.06015286       7.00270877       8.69147367        0       0.00032069       0.00077135       0.00142173
Ti       7.57470916       6.12444450      11.31040947        0       0.00019739      -0.00014530       0.00063826
O        6.06096350       7.00244178      12.23159545        3      -0.00040095      -0.00071580       0.13830976
O        7.57507427       6.12715474       7.77066743        1      -0.00015699      -0.00049533      -0.00094323
C        4.54543110       7.87668642      10.00325153        2       0.00008579       0.00137456       0.00108342
Ti       4.54558002       9.62610104       8.69504287        0       0.00073298      -0.00067392       0.00015313
Ti       6.05939896       8.75149698      11.31120512        0      -0.00023794       0.00060473      -0.00083499
O        4.54545466       9.62914722      12.23159545        3      -0.00044917       0.00162888       0.11117167
O        6.05945018       8.75203286       7.77153018        1      -0.00049039      -0.00066927      -0.00089705
C        0.06928733       0.04676848      17.56355899       10       0.00119362      -0.00021598      -0.04943804
C        1.27703586       0.74981463      17.57194722       10      -0.00252019       0.00327004      -0.04372866
C       -1.12043227       2.13437313      17.53918832       10       0.00184707      -0.00297527       0.51000990
C        0.06665661       2.84767002      17.54682706       10      -0.00041136       0.00080875      -0.05453230
C       -2.36256747       4.28411415      17.53918277       10      -0.00129171       0.00106643       0.34203906
C       -1.15210218       4.95651936      17.54682450       10      -0.00094662      -0.00063649      -0.00439442
C       -3.57550436       6.36179279      17.56355844       10      -0.00221956      -0.00074879      -0.02889409
C       -2.36256824       7.05426520      17.57194702       10      -0.00117494      -0.00488433      -0.00396473
C       -4.78652129       8.44960151      17.56166605       10       0.00150965       0.00035447      -0.04734475
C       -3.57432262       9.14898555      17.57295571       10       0.00112396       0.00024552      -0.05522187
C        2.48823293       0.05045392      17.57398073       10      -0.00145357       0.00346363      -0.04078720
C        3.69733224       0.75129634      17.57295562       10      -0.00049742       0.00325573      -0.03872264
C        1.28237380       2.14710057      17.56355920       10      -0.00162288       0.00254884      -0.04666388
C        2.48746887       2.85130251      17.55449907       10      -0.00252684       0.00096964      -0.03502916
C        0.06414366       4.25249516      17.52069918       10      -0.00207134      -0.00005572      -0.04808428
C        1.27141237       4.95004274      17.53236913       10      -0.00265948       0.00019276      -0.02290989
C       -1.15144957       6.36011033      17.56355844       10      -0.00052491      -0.00226273      -0.04615840
C        0.06152623       7.05204392      17.55449917       10      -0.00109309      -0.00182064       0.00768641
C       -2.36295774       8.45276422      17.57398094       10       0.00176142      -0.00400794      -0.02888306
C       -1.15160257       9.14954712      17.57295571       10       0.00275684      -0.00296417      -0.01495137
C        4.90633139       0.05079945      17.57398073       10      -0.00008541      -0.00036179      -0.02861606
C        6.11740416       0.74970099      17.57194722       10      -0.00032497       0.00011339      -0.03472277
C        3.69700826       2.15064759      17.56166592       10      -0.00166016       0.00300681      -0.02700615
C        4.90591875       2.85166720      17.55449907       10       0.00059479      -0.00183755      -0.03758039
C        2.48521562       4.24979207      17.54061557       10      -0.00306389      -0.00072012      -0.03499300
C        3.69658472       4.95099917      17.53782771       10       0.00032430      -0.00328110      -0.05634935
C        1.27158449       6.35088823      17.54061547       10      -0.00123636       0.00013776      -0.05729496
C        2.48458981       7.04985962      17.53782760       10      -0.00003890       0.00171906      -0.01402612
C        0.05966779       8.45034213      17.56166605       10       0.00233409      -0.00258818      -0.05621112
C        1.27132341       9.14771490      17.55449892       10      -0.00059028       0.00051949      -0.00446630
C        7.32410102       0.04805449      17.56355899       10      -0.00213264      -0.00079540      -0.02642381
C        8.53912301       0.75061560      17.54682687       10      -0.00141414      -0.00302370      -0.01689368
C        6.11034558       2.14632190      17.56355920       10       0.00056060      -0.00048775       0.00038196
C        7.32678528       2.84611674      17.54682706       10       0.00013586      -0.00000519      -0.01914590
C        4.90829792       4.24957372      17.54061557       10       0.00161924      -0.00311161       0.01333404
C        6.12142156       4.95040283      17.53236913       10       0.00006758      -0.00001319      -0.05924210
C        3.69671617       6.35002376      17.53474971       10       0.00232870      -0.00018647      -0.05104433
C        4.90832127       7.04964707      17.53782760       10       0.00349691       0.00215371      -0.03908428
C        2.48334299       8.45018730      17.54061530       10      -0.00068414       0.00237145      -0.04460843
C        3.69613673       9.15083125      17.53236872       10       0.00044640      -0.00054193      -0.05515884
C        9.75663540       0.04928318      17.52069913       10      -0.00049121      -0.00221315      -0.05271829
C       10.97492028       0.74961974      17.54682687       10      -0.00046647      -0.00361322      -0.05173439
C        8.51591024       2.13501615      17.53918832       10      -0.00032652      -0.00232912       0.36468679
C        9.75593628       2.85207894      17.29482906       10       0.00058169      -0.00097399      -1.75711840
C        7.32921003       4.25319179      17.52069918       10      -0.00057506       0.00063957      -0.02978283
C        8.54687297       4.95871175      17.54682450       10      -0.00203123       0.00068352      -0.02338562
C        6.12175776       6.35104721      17.54061547       10       0.00195456       0.00042111      -0.00656029
C        7.33133972       7.05202897      17.55449917       10       0.00005779       0.00070963      -0.01908413
C        4.90933407       8.44954032      17.54061530       10       0.00247680       0.00256528      -0.04078149
C        6.12184184       9.14683552      17.55449892       10       0.00183297       0.00076998      -0.04959602
O        9.82996011       2.80402789      15.74159745       11       0.00782883       0.00219979       0.00492234
H        9.05519456       3.25995964      15.36143616       12      -0.00827446       0.00223417      -0.00399662
