130
Lattice="12.12 0.0 0.0 -6.06 10.496227893867395 0.0 0.0 0.0 40.0" Properties=species:S:1:pos:R:3:tags:I:1:forces:R:3 energy=-1199.9796362439045 stress="0.0028112730964124223 1.9683358715168866e-08 2.7695506790621698e-08 1.9683358715168866e-08 0.0028112348415348207 7.512775925293392e-08 2.7695506790621698e-08 7.512775925293392e-08 0.0020404346180213314" pbc="T T F"
C        0.00001247       0.00000557      10.00084884        2       0.00000063       0.00005192       0.00081610
Ti       0.00000803       1.74935471       8.68966735        0       0.00000400       0.00011529       0.00069648
Ti       1.51482901       0.87458741      11.31124016        0      -0.00000149       0.00009760      -0.00044381
O        0.00014405       1.74861018      12.23159545        3      -0.00008027      -0.00000995       0.08827042
O        1.51506317       0.87471390       7.76904297        1       0.00016415       0.00003925       0.00089096
C       -1.51497150       2.62400499      10.00104451        2       0.00011403      -0.00015224       0.00116353
Ti      -1.51498767       4.37339775       8.68976753        0       0.00000588       0.00009068       0.00184273
Ti       0.00000617       3.49847803      11.31149434        0       0.00010691       0.00001408       0.00024160
O       -1.51480002       4.37247899      12.23159545        3      -0.00003939      -0.00000978       0.14322820
O       -0.00000722       3.49885526       7.76913275        1      -0.00001215       0.00041095       0.00148605
C       -3.03001953       5.24809875      10.00134216        2      -0.00003665      -0.00001503       0.00162717
Ti      -3.03002864       6.99750043       8.68977549        0       0.00005417      -0.00004840       0.00193312
Ti      -1.51517628       6.12266241      11.31158439        0      -0.00014178      -0.00005967       0.00091705
O       -3.03069493       6.99798696      12.23159545        3       0.00010935       0.00003362       0.14056566
O       -1.51495113       6.12284246       7.76922600        1       0.00016479       0.00013452       0.00221999
C       -4.54502273       7.87221103      10.00107829        2      -0.00005367       0.00015274       0.00126509
Ti      -4.54500304       9.62155790       8.68967651        0       0.00012182      -0.00006181       0.00079782
Ti      -3.03018841       8.74697062      11.31152817        0      -0.00004747       0.00012977       0.00037574
O       -4.54560317       9.62214733      12.23159545        3      -0.00001643      -0.00011393       0.09600447
O       -3.02989452       8.74678299       7.76915194        1       0.00036813      -0.00021652       0.00161085
C        3.02992932      -0.00000247      10.00101662        2      -0.00010580       0.00005673       0.00118857
Ti       3.02991673       1.74932209       8.68971914        0       0.00000030      -0.00000169       0.00138441
Ti       4.54476528       0.87479168      11.31148255        0       0.00004722       0.00015391       0.00045022
O        3.02888053       1.74876735      12.23159545        3      -0.00008220      -0.00007496       0.12772471
O        4.54507251       0.87469567       7.76918627        1       0.00021648      -0.00005646       0.00186320
C        1.51496143       2.62399239      10.00099824        2      -0.00004924      -0.00011437       0.00111969
Ti       1.51498774       4.37339861       8.68976058        0       0.00000297       0.00012995       0.00183266
Ti       3.02991655       3.49849044      11.31147195        0       0.00006322      -0.00001878       0.00039875
O        1.51491739       4.37231828      12.23159545        3      -0.00002571       0.00013663       0.14188949
O        3.03005314       3.49879165       7.76917653        1       0.00009339       0.00019820       0.00180141
C        0.00001797       5.24807132      10.00151587        2      -0.00002053      -0.00012077       0.00165302
Ti      -0.00000473       6.99747233       8.68978532        0      -0.00000345      -0.00000754       0.00240325
Ti       1.51516119       6.12266944      11.31160755        0      -0.00002526       0.00000475       0.00101311
O       -0.00019249       6.99713523      12.23159545        3      -0.00014940       0.00010770       0.10324924
O        1.51496189       6.12285851       7.76922450        1      -0.00012837       0.00019043       0.00224928
C       -1.51499435       7.87219517      10.00161696        2      -0.00013216       0.00006701       0.00168675
Ti      -1.51502275       9.62156045       8.68977006        0       0.00010625      -0.00005486       0.00189268
Ti      -0.00002272       8.74697647      11.31162335        0       0.00005036       0.00006980       0.00111299
O       -1.51595928       9.62218397      12.23159545        3       0.00009414      -0.00010781       0.13909086
O        0.00001745       8.74679150       7.76922303        1       0.00006261      -0.00018930       0.00231254
C        6.05999214      -0.00002906      10.00139508        2       0.00001278       0.00013678       0.00166292
Ti       6.05998490       1.74934542       8.68971640        0      -0.00002165       0.00000194       0.00197377
Ti       7.57514013       0.87486210      11.31150972        0       0.00008015       0.00016720       0.00057403
O        6.05977894       1.74863626      12.23159545        3       0.00019307       0.00023325       0.12122484
O        7.57494261       0.87469439       7.76919931        1      -0.00017159      -0.00005305       0.00201979
C        4.54510268       2.62413616      10.00140481        2      -0.00017426      -0.00009500       0.00157807
Ti       4.54495951       4.37342387       8.68968498        0      -0.00004969      -0.00001752       0.00196328
Ti       6.06000695       3.49878042      11.31159170        0      -0.00000578       0.00009104       0.00095535
O        4.54408189       4.37355965      12.23159545        3       0.00027056       0.00005375       0.11835529
O        6.06000696       3.49874743       7.76917149        1       0.00001146       0.00003649       0.00216234
C        3.02999883       5.24811549      10.00135847        2       0.00000214      -0.00002853       0.00164831
Ti       3.03003756       6.99749450       8.68978650        0      -0.00002848      -0.00007373       0.00204482
Ti       4.54521541       6.12286500      11.31151132        0       0.00010781      -0.00008149       0.00060313
O        3.03086706       6.99782549      12.23159545        3      -0.00006126      -0.00009702       0.13562811
O        4.54498998       6.12275804       7.76920002        1      -0.00008001      -0.00010881       0.00201425
C        1.51499420       7.87218217      10.00172107        2       0.00009206       0.00004182       0.00181091
Ti       1.51502132       9.62157145       8.68978864        0      -0.00008785      -0.00000902       0.00200910
Ti       3.03018180       8.74698863      11.31156874        0       0.00005247      -0.00006805       0.00053875
O        1.51579164       9.62224542      12.23159545        3      -0.00005029       0.00003003       0.13517983
O        3.02988670       8.74678927       7.76916965        1      -0.00039036      -0.00020591       0.00180624
C        9.09005718       0.00000781      10.00108826        2       0.00016203       0.00004621       0.00124754
Ti       9.09008550       1.74931585       8.68972270        0       0.00002374      -0.00004388       0.00152277
Ti      10.60522014       0.87460062      11.31128444        0       0.00011521       0.00000248      -0.00034897
O        9.09118316       1.74874334      12.23159545        3      -0.00008273      -0.00000641       0.13421127
O       10.60491572       0.87471376       7.76906110        1      -0.00020388       0.00003262       0.00103771
C        7.57489903       2.62414536      10.00149272        2       0.00016466      -0.00007529       0.00163930
Ti       7.57503791       4.37343687       8.68966602        0       0.00004596       0.00000707       0.00189993
Ti       9.09007945       3.49852417      11.31148412        0      -0.00000601      -0.00008031       0.00048021
O        7.57585259       4.37376148      12.23159545        3      -0.00008336      -0.00012220       0.11142081
O        9.08994664       3.49877582       7.76918107        1      -0.00009721       0.00012870       0.00191404
C        6.06001045       5.24799719      10.00154185        2       0.00003739       0.00018566       0.00174614
Ti       6.05999816       6.99759505       8.68972461        0      -0.00002690       0.00005973       0.00159241
Ti       7.57483566       6.12293077      11.31149251        0      -0.00013662      -0.00001604       0.00057580
O        6.06001424       6.99889554      12.23159545        3      -0.00004991       0.00001347       0.13593855
O        7.57500178       6.12274816       7.76919211        1       0.00005450      -0.00012193       0.00196438
C        4.54503034       7.87221961      10.00111006        2       0.00010885       0.00012962       0.00122182
Ti       4.54500561       9.62155221       8.68969846        0      -0.00014704      -0.00009382       0.00094402
Ti       6.06002534       8.74713956      11.31130217        0       0.00001440       0.00011352      -0.00027691
O        4.54578705       9.62209390      12.23159545        3      -0.00013475      -0.00010721       0.10434861
O        6.05998745       8.74676406       7.76907165        1      -0.00002415      -0.00019466       0.00109624
C        0.04469529       0.06743450      17.58949019       10       0.00622183       0.00159734      -0.06410531
C        1.25695858       0.76725811      17.58949019       10       0.00358420       0.00220842      -0.06278838
C       -1.16712627       2.16701760      17.58949019       10      -0.00115809       0.00064178      -0.05670104
C        0.04513572       2.86684668      17.58949019       10      -0.00254329       0.00160514      -0.05802568
C       -2.37918731       4.26613611      17.58949019       10       0.00094033      -0.00079700      -0.03398778
C       -1.16706643       4.96588942      17.58949019       10       0.00088562       0.00111419      -0.02145389
C       -3.59118149       6.36515848      17.58949019       10       0.00321449      -0.00093539      -0.03353528
C       -2.37906165       7.06497455      17.58949019       10       0.00221842      -0.00117829      -0.01901486
C       -4.80275701       8.46420339      17.58949019       10      -0.00040808      -0.00064425      -0.05322796
C       -3.59053601       9.16405364      17.58949019       10      -0.00281774      -0.00122808      -0.05394997
C        2.46904613       0.06745479      17.58949019       10       0.00475278       0.00208900      -0.05296267
C        3.68096438       0.76721384      17.58949019       10       0.00472900       0.00083884      -0.04042745
C        1.25729126       2.16692234      17.58949019       10      -0.00125637       0.00310571      -0.05655287
C        2.46918799       2.86676406      17.58949019       10      -0.00123665      -0.00016433      -0.03991082
C        0.04495815       4.26611169      17.58949019       10       0.00044657       0.00123092      -0.03980082
C        1.25694988       4.96594358      17.58949019       10       0.00081326      -0.00022495      -0.01832583
C       -1.16729156       6.36518208      17.58949019       10       0.00221862       0.00158613      -0.06723682
C        0.04484778       7.06512973      17.58949019       10       0.00164770      -0.00177897      -0.00369745
C       -2.37881387       8.46445361      17.58949019       10      -0.00103511      -0.00065404      -0.04308115
C       -1.16681640       9.16431339      17.58949019       10      -0.00100703      -0.00142745      -0.01369360
C        4.89291528       0.06767250      17.58949019       10       0.00316672       0.00024285      -0.04197415
C        6.10487411       0.76703974      17.58949019       10       0.00236956       0.00217412      -0.04934202
C        3.68128971       2.16690554      17.58949019       10      -0.00180436      -0.00013381      -0.02932590
C        4.89313620       2.86647297      17.58949019       10      -0.00205119      -0.00030094      -0.05932371
C        2.46916260       4.26617005      17.58949019       10       0.00011601      -0.00078549      -0.03838478
C        3.68089650       4.96588184      17.58949019       10      -0.00019492       0.00070432      -0.05376781
C        1.25694960       6.36525045      17.58949019       10       0.00198166       0.00019717      -0.06765883
C        2.46886724       7.06497104      17.58949019       10       0.00174580       0.00004487      -0.01324935
C        0.04513475       8.46476097      17.58949019       10      -0.00234564      -0.00218831      -0.06842559
C        1.25716343       9.16426472      17.58949019       10      -0.00313064      -0.00025176      -0.01116475
C        7.31679607       0.06761029      17.58949019       10       0.00101611       0.00142549      -0.04371829
C        8.52866513       0.76719583      17.58949019       10       0.00102714       0.00064611      -0.03945009
C        6.10516481       2.16667187      17.58949019       10      -0.00168234       0.00173109      -0.00609180
C        7.31719293       2.86650579      17.58949019       10      -0.00222211      -0.00166911      -0.06305638
C        4.89305341       4.26606243      17.58949019       10      -0.00088658       0.00012462      -0.00529300
C        6.10498700       4.96595794      17.58949019       10      -0.00048026      -0.00130135      -0.06503523
C        3.68095840       6.36515159      17.58949019       10       0.00121054       0.00011490      -0.03963310
C        4.89273372       7.06504322      17.58949019       10       0.00125132      -0.00309101      -0.04053041
C        2.46924214       8.46450274      17.58949019       10      -0.00472051      -0.00088793      -0.04756567
C        3.68096463       9.16416649      17.58949019       10      -0.00476280      -0.00207317      -0.04856402
C        9.74054866       0.06756437      17.58949019       10       0.00282368       0.00125978      -0.04891829
C       10.95259030       0.76734815      17.58949019       10       0.00038916       0.00066305      -0.06060580
C        8.52899358       2.16685342      17.58949019       10      -0.00219108       0.00113829      -0.02232050
C        9.74106863       2.86670641      17.58949019       10      -0.00317644       0.00089528      -0.03836409
C        7.31704377       4.26611295      17.58949019       10      -0.00089301      -0.00119639      -0.00458963
C        8.52914876       4.96589439      17.58949019       10      -0.00093140       0.00074362      -0.05916351
C        6.10484063       6.36525966      17.58949019       10       0.00255972      -0.00161664      -0.01690244
C        7.31701131       7.06492184      17.58949019       10       0.00118557      -0.00062032      -0.03989755
C        4.89314601       8.46433928      17.58949019       10      -0.00359119      -0.00217604      -0.04914013
C        6.10523198       9.16402900      17.58949019       10      -0.00622376      -0.00156113      -0.05781836
