132
Lattice="12.12 0.0 0.0 -6.06 10.496227893867395 0.0 0.0 0.0 40.0" Properties=species:S:1:pos:R:3:tags:I:1:forces:R:3 energy=-1209.382923884814 stress="0.002813844075651549 -8.720463585536386e-06 6.712806562715278e-06 -8.720463585536386e-06 0.0027833381849873035 -6.6670043195896e-06 6.712806562715278e-06 -6.6670043195896e-06 0.0028465315903492706" pbc="T T F"
C        0.00443209      -0.00512420       9.97573449        2      -0.00023653       0.00002929       0.00218512
Ti       0.00605642       1.74996867       8.69891889        0       0.00047769      -0.00043548       0.00130846
Ti       1.52459558       0.87391898      11.29489322        0       0.00200626       0.00145330      -0.00119647
O        0.00213608       1.74247396      12.23159545        3       0.00113539       0.00112087      -0.16013768
O        1.51295069       0.87557565       7.77316050        1       0.00201652      -0.00228552      -0.00132735
C       -1.51496606       2.62669558      10.01348326        2       0.00074289      -0.00228293       0.00005430
Ti      -1.50562104       4.38411428       8.70148141        0      -0.00075084      -0.00306314       0.00370046
Ti      -0.01155357       3.49836103      11.30926922        0      -0.00069408       0.00177323      -0.00153873
O       -1.46794929       4.43682788      12.23159545        3       0.00014832      -0.00216511      -0.65752796
O       -0.00306683       3.49616138       7.77975074        1       0.00007934      -0.00068480      -0.00223281
C       -3.02455335       5.25231298       9.99082055        2       0.00113874       0.00020220       0.00067408
Ti      -3.02968760       6.99896088       8.69821285        0       0.00250103      -0.00050411       0.00302060
Ti      -1.50741066       6.14513389      11.27953346        0       0.00275614      -0.00292471       0.00201017
O       -3.03021251       7.00962460      12.23159545        3       0.00115733      -0.00193237      -0.09430335
O       -1.51738809       6.12240836       7.77060752        1       0.00161448      -0.00103158      -0.00192942
C       -4.54462765       7.87386500       9.97639210        2      -0.00013084       0.00119552       0.00040333
Ti      -4.54696509       9.62006062       8.69542749        0       0.00185217      -0.00091085       0.00147939
Ti      -3.03387902       8.74920790      11.30779676        0       0.00132587       0.00088364       0.00036123
O       -4.54818973       9.62159601      12.23159545        3       0.00077959       0.00021237      -0.11072802
O       -3.03182610       8.74519438       7.77097669        1       0.00158141      -0.00059168      -0.00262102
C        3.03094311      -0.00092227       9.97997203        2       0.00028650      -0.00150155       0.00012613
Ti       3.03132201       1.75122816       8.69449558        0      -0.00005589      -0.00060772       0.00413343
Ti       4.54345483       0.87811291      11.29757992        0       0.00173856      -0.00079237      -0.00023088
O        3.02878052       1.75010858      12.23159545        3       0.00067558      -0.00110865      -0.10306133
O        4.54681842       0.87619652       7.77044312        1      -0.00017798      -0.00153530      -0.00257587
C        1.51717556       2.62239678       9.97686563        2       0.00269106      -0.00155245      -0.00138650
Ti       1.51733713       4.37368210       8.69764521        0       0.00081709      -0.00160329       0.00191704
Ti       3.03049031       3.49896592      11.30182015        0       0.00202631      -0.00237277      -0.00062177
O        1.52196085       4.37447435      12.23159545        3       0.00054579      -0.00033149      -0.09924393
O        3.03204264       3.49802454       7.77116722        1       0.00174393      -0.00100422      -0.00359433
C        0.00592568       5.25689045       9.96692034        2       0.00033219       0.00069364       0.00018946
Ti       0.00575371       6.99707986       8.69215246        0       0.00229999      -0.00170498       0.00129901
Ti       1.51667268       6.11921876      11.30804524        0      -0.00183308       0.00133389       0.00214795
O        0.01101953       7.00240970      12.23159545        3      -0.00084085      -0.00206053      -0.10338304
O        1.51863358       6.12044437       7.76864317        1       0.00180817      -0.00141974      -0.00224627
C       -1.51325961       7.88029469       9.97396094        2       0.00254527      -0.00009553       0.00173526
Ti      -1.51456550       9.62019902       8.68404071        0       0.00104962      -0.00319005       0.00355483
Ti       0.00698179       8.74763652      11.30290514        0       0.00000951      -0.00049904       0.00089541
O       -1.51544641       9.62099855      12.23159545        3       0.00071536       0.00039785      -0.12901010
O       -0.00190450       8.74717953       7.76443289        1       0.00228313       0.00023878      -0.00384504
C        6.05275413      -0.00826154       9.97707536        2      -0.00000430      -0.00150554      -0.00024347
Ti       6.05788635       1.74968909       8.70116714        0      -0.00077588      -0.00026372       0.00233294
Ti       7.55597515       0.85711860      11.27142308        0      -0.00544349      -0.00369343      -0.00385948
O        6.05629598       1.74250157      12.23159545        3      -0.00009972       0.00172846      -0.07214620
O        7.57593106       0.87559711       7.77077767        1      -0.00011329       0.00197892      -0.00053540
C        4.54423625       2.62093793       9.97447018        2      -0.00005626      -0.00051473       0.00124073
Ti       4.54618252       4.37140917       8.69675841        0       0.00048943      -0.00068686       0.00028882
Ti       6.06804236       3.49106932      11.30406584        0       0.00046427      -0.00065784      -0.00140179
O        4.54746122       4.36949616      12.23159545        3      -0.00066754      -0.00068572      -0.10947026
O        6.06463170       3.49681629       7.77553810        1       0.00074097      -0.00165165      -0.00022085
C        3.03322624       5.24532332       9.97563765        2       0.00140991      -0.00063666      -0.00078367
Ti       3.03377343       6.99256865       8.69433400        0       0.00233539       0.00055928       0.00280804
Ti       4.55063405       6.11628559      11.29349401        0       0.00217758      -0.00056561       0.00148045
O        3.03300413       6.99224607      12.23159545        3       0.00097897      -0.00004407      -0.12764986
O        4.54893839       6.11909215       7.76925347        1       0.00120523      -0.00051938      -0.00167777
C        1.51714248       7.87157745       9.96942091        2       0.00129811      -0.00090733       0.00027273
Ti       1.51938202       9.61111541       8.68954949        0       0.00289584       0.00102407       0.00312131
Ti       3.03524399       8.74418132      11.29907983        0       0.00030310       0.00043202       0.00013181
O        1.52001523       9.61445635      12.23159545        3       0.00061614      -0.00141123      -0.10707844
O        3.03351361       8.74084972       7.76398871        1       0.00088471      -0.00107913      -0.00213191
C        9.08863178      -0.01402664       9.96021860        2       0.00224969      -0.00125259      -0.00213777
Ti       9.08377582       1.73930218       8.68668980        0       0.00065786       0.00004924       0.00254071
Ti      10.62041362       0.87122544      11.28243982        0       0.00205616      -0.00078699      -0.00260720
O        9.07347184       1.65276257      12.23159545        3       0.00670525      -0.00187086      -0.62756829
O       10.60594363       0.88023437       7.77730676        1       0.00317375       0.00121779      -0.00225772
C        7.57989897       2.61893283       9.98683300        2       0.00089971       0.00056413       0.00188633
Ti       7.57099033       4.37309761       8.69673161        0       0.00132232      -0.00084032       0.00189370
Ti       9.12383573       3.51884924      11.33082064        0       0.00176586       0.00161579      -0.00323401
O        7.57122137       4.37472256      12.23159545        3       0.00121236       0.00050184      -0.11518417
O        9.09554005       3.49665904       7.79234072        1      -0.00053006      -0.00180280      -0.00212267
C        6.06440895       5.24488545       9.97776675        2       0.00115097       0.00043515       0.00135056
Ti       6.06067695       6.99539021       8.69424824        0       0.00115236      -0.00005548       0.00161339
Ti       7.57889554       6.12304312      11.29619924        0       0.00234283      -0.00030948      -0.00139479
O        6.06284068       6.99520230      12.23159545        3       0.00258955      -0.00102086      -0.10317664
O        7.57915601       6.11839601       7.77541352        1       0.00230107       0.00243444      -0.00151441
C        4.54762307       7.86812800       9.97563191        2       0.00147591       0.00005740      -0.00122691
Ti       4.54326463       9.61703910       8.69173948        0       0.00006020       0.00122855       0.00175454
Ti       6.05695325       8.73876988      11.30403392        0       0.00057476      -0.00325688      -0.00028740
O        4.54796665       9.61677884      12.23159545        3       0.00055445       0.00071735      -0.11928060
O        6.06176928       8.74370460       7.76987510        1       0.00249854      -0.00005314      -0.00194079
C        0.06127374       0.07423643      15.71619057       10       0.00202713       0.00367073       0.01748298
C        1.26648157       0.77950307      15.72457880       10      -0.00022556       0.00119114      -0.02225325
C       -1.13608641       2.16305220      15.69181990       10      -0.00252806       0.00210511       0.38764826
C        0.05428400       2.87633507      15.69945864       10      -0.00276021       0.00058288       0.06671103
C       -2.37302966       4.31923717      15.69181435       10       0.00048204      -0.00162414       0.73931359
C       -1.16227250       4.98640610      15.69945608       10      -0.00213093      -0.00122615       0.09346461
C       -3.58564579       6.39096105      15.71619002       10      -0.00129248      -0.00197460       0.05042596
C       -2.37274873       7.08348450      15.72457860       10      -0.00307718       0.00058859       0.04476331
C       -4.79454659       8.47787337      15.71429763       10      -0.00087639       0.00068677       0.03066725
C       -3.58324097       9.17898992      15.72558729       10      -0.00378970      -0.00106791      -0.01247073
C        2.47988617       0.08018786      15.72661231       10      -0.00085977       0.00140113       0.03355751
C        3.68805826       0.78140875      15.72558720       10      -0.00109168      -0.00082334       0.01884497
C        1.27206506       2.17580089      15.71619078       10      -0.00125777       0.00204668       0.03384151
C        2.47840892       2.87959238      15.70713065       10      -0.00092941       0.00205406       0.01889396
C        0.05472915       4.28127662      15.67333076       10      -0.00163321       0.00015579       0.02756917
C        1.26343099       4.97846318      15.68500071       10      -0.00301240       0.00235846       0.01755489
C       -1.16017167       6.39073644      15.71619002       10      -0.00250512      -0.00026586       0.02530142
C        0.05287258       7.08170551      15.70713075       10      -0.00191872       0.00152889       0.06093674
C       -2.37172222       8.48256835      15.72661252       10      -0.00110549       0.00207607       0.02325121
C       -1.16095434       9.17988901      15.72558729       10       0.00040293       0.00027092       0.03244482
C        4.89699754       0.08092817      15.72661231       10      -0.00196708       0.00119672       0.03190806
C        6.10804459       0.78057212      15.72457880       10      -0.00349216       0.00175158       0.07385865
C        3.68792498       2.18004298      15.71429750       10      -0.00070419      -0.00013596       0.04395696
C        4.89682113       2.88054114      15.70713065       10      -0.00053637       0.00093901       0.09183784
C        2.47734605       4.27840862      15.69324715       10      -0.00271192       0.00248727       0.05050646
C        3.68854474       4.97962786      15.69045929       10      -0.00222255       0.00056962       0.06578326
C        1.26393968       6.37960101      15.69324705       10      -0.00204977       0.00183674       0.05095791
C        2.47734678       7.07775211      15.69045918       10      -0.00122684      -0.00091250       0.04162757
C        0.05070667       8.47926766      15.71429763       10       0.00047595       0.00213113       0.02655789
C        1.26202755       9.17548089      15.70713050       10      -0.00028880       0.00181268       0.05661000
C        7.31293764       0.07540747      15.71619057       10      -0.00260854       0.00427788       0.03293741
C        8.52810354       0.77722340      15.69945845       10      -0.00053961       0.00209128       0.13237178
C        6.10124416       2.17676826      15.71619078       10      -0.00056316       0.00124919       0.05981087
C        7.31737278       2.87797186      15.69945864       10       0.00040807      -0.00001982       0.12098067
C        4.90020228       4.27863593      15.69324715       10      -0.00153358       0.00116744       0.07015431
C        6.11225685       4.97958605      15.68500071       10      -0.00071687       0.00081154       0.05747584
C        3.68899297       6.37798223      15.68738129       10      -0.00198586      -0.00094925       0.03719553
C        4.90009660       7.07776677      15.69045918       10      -0.00312557      -0.00115901       0.03780334
C        2.47420790       8.47746413      15.69324688       10      -0.00256517      -0.00079324       0.04234745
C        3.68763135       9.17720836      15.68500030       10      -0.00356066      -0.00180011      -0.02316652
C        9.74717217       0.07536750      15.67333071       10       0.00031542       0.00191806      -0.00187638
C       10.96541309       0.77757711      15.69945845       10      -0.00351103       0.00219954       0.05752327
C        8.50322760       2.16270815      15.69181990       10       0.00151822       0.00223014       0.43745035
C        9.74275132       2.88136656      15.44746064       10      -0.00142222       0.00462951      -0.77293160
C        7.32029641       4.28362372      15.67333076       10       0.00000818      -0.00015100       0.05525017
C        8.53630700       4.98904691      15.69945608       10      -0.00161183      -0.00088874       0.14896465
C        6.11241381       6.37938939      15.69324705       10      -0.00196869       0.00074014       0.05388658
C        7.32260268       7.08121683      15.70713075       10      -0.00333809       0.00132180       0.04167042
C        4.90136854       8.47675891      15.69324688       10      -0.00372825      -0.00031567       0.04267320
C        6.11372993       9.17477194      15.70713050       10      -0.00681956      -0.00024972      -0.01203249
O        9.76487629       2.96988591      13.99160394       11      -0.00179167       0.00002734      -0.00263711
H        9.41206483       2.13277552      13.54147172       12       0.00093234       0.00043645       0.00255704
