130
Lattice="12.12 0.0 0.0 -6.06 10.496227893867395 0.0 0.0 0.0 40.0" Properties=species:S:1:pos:R:3:tags:I:1:forces:R:3 energy=-1200.042415290421 stress="0.002834245112300334 3.2844027911989507e-08 -5.556420502458615e-07 3.2844027911989507e-08 0.0028338541812312715 -8.647263159490189e-07 -5.556420502458615e-07 -8.647263159490189e-07 0.002915334515121501" pbc="T T F"
C        0.00003184       0.00004678       9.97530702        2      -0.00017324      -0.00016528      -0.00672077
Ti      -0.00000877       1.74941796       8.69650637        0       0.00016221      -0.00005319      -0.00831880
Ti       1.51547557       0.87516024      11.29754308        0       0.00012371       0.00004369       0.00125894
O       -0.00004208       1.74864468      12.23159545        3      -0.00000489      -0.00009307      -0.13270983
O        1.51504519       0.87472630       7.77420956        1      -0.00011578      -0.00011675       0.00449113
C       -1.51513591       2.62412015       9.97751094        2      -0.00036109      -0.00002415      -0.00731447
Ti      -1.51455184       4.37436628       8.69454301        0       0.00045106       0.00040834      -0.00955978
Ti      -0.00055471       3.49688721      11.29705252        0      -0.00095803      -0.00120822      -0.00085587
O       -1.51547877       4.37322110      12.23159545        3       0.00009487       0.00005142      -0.11859872
O       -0.00008069       3.49804573       7.77321551        1      -0.00006981      -0.00055750       0.00404974
C       -3.02989828       5.24814087       9.97550329        2      -0.00016624      -0.00022784      -0.00816804
Ti      -3.02875982       6.99754945       8.69458552        0       0.00066528       0.00002688      -0.00977017
Ti      -1.51686490       6.12135000      11.29618408        0      -0.00077702      -0.00010340      -0.00113001
O       -3.03001119       6.99705858      12.23159545        3       0.00014262      -0.00021399      -0.11349274
O       -1.51527914       6.12251873       7.77190051        1      -0.00016097      -0.00017729       0.00346006
C       -4.54491714       7.87197256       9.97767727        2      -0.00027857      -0.00032513      -0.00706604
Ti      -4.54490781       9.62151242       8.69617375        0      -0.00005535       0.00012486      -0.00885524
Ti      -3.03239361       8.74722923      11.29666361        0      -0.00099647      -0.00030005       0.00052000
O       -4.54583538       9.62212080      12.23159545        3      -0.00015200      -0.00007030      -0.13511965
O       -3.03072952       8.74715418       7.77307441        1      -0.00043707       0.00023339       0.00372144
C        3.02993827      -0.00009786       9.97690607        2      -0.00005021       0.00004155      -0.00691156
Ti       3.03083616       1.74972577       8.69440503        0       0.00026526       0.00027648      -0.00912570
Ti       4.54434650       0.87599391      11.29145531        0       0.00008651      -0.00017338      -0.00255800
O        3.02959438       1.74916503      12.23159545        3       0.00020995       0.00008345      -0.13386064
O        4.54460821       0.87452023       7.77246807        1      -0.00003812      -0.00030882       0.00295747
C        1.51488296       2.62401794       9.97700387        2       0.00025980      -0.00004935      -0.00712045
Ti       1.51451687       4.37424929       8.69472347        0      -0.00021719       0.00025687      -0.00874796
Ti       3.03091578       3.49746627      11.29161516        0       0.00019918      -0.00099348      -0.00410213
O        1.51526044       4.37290531      12.23159545        3       0.00029430       0.00005065      -0.12335083
O        3.02966081       3.49850641       7.77257902        1      -0.00029036      -0.00008756       0.00311166
C       -0.00006912       5.24796495       9.97368462        2      -0.00005967      -0.00040724      -0.00794213
Ti       0.00015997       6.99769207       8.69675025        0       0.00001434      -0.00016818      -0.00776468
Ti       1.51644142       6.12118798      11.29792363        0      -0.00030003      -0.00001893      -0.00157468
O       -0.00015896       6.99711918      12.23159545        3       0.00020253      -0.00027449      -0.09751746
O        1.51526973       6.12238126       7.77197963        1       0.00000013      -0.00019604       0.00408111
C       -1.51506027       7.87206370       9.97311730        2      -0.00025017      -0.00008641      -0.00791115
Ti      -1.51450122       9.62064097       8.69501448        0       0.00011262      -0.00046925      -0.00934463
Ti      -0.00037480       8.74806169      11.29926725        0      -0.00002422       0.00047014      -0.00013397
O       -1.51497285       9.62179112      12.23159545        3       0.00005520      -0.00038622      -0.12230523
O       -0.00012580       8.74723406       7.77210315        1      -0.00006579       0.00024304       0.00394942
C        6.05991041      -0.00036815       9.97524194        2       0.00002200       0.00001294      -0.00792073
Ti       6.06014517       1.74888403       8.69359852        0      -0.00026357      -0.00044515      -0.00858704
Ti       7.57501319       0.87562992      11.29141068        0       0.00081945       0.00005178      -0.00195253
O        6.05984438       1.74981775      12.23159545        3      -0.00014766       0.00043214      -0.10347955
O        7.57532450       0.87438980       7.77233463        1       0.00005032      -0.00049152       0.00277914
C        4.54503781       2.62407237       9.97549484        2      -0.00013328      -0.00019132      -0.00865263
Ti       4.54487322       4.37376866       8.69347825        0      -0.00066408       0.00022537      -0.00836846
Ti       6.06006315       3.49911670      11.29984721        0       0.00089311      -0.00067765      -0.00088524
O        4.54524966       4.37315039      12.23159545        3       0.00029942      -0.00036977      -0.10157280
O        6.05986479       3.49856595       7.77357640        1      -0.00013136      -0.00024034       0.00388498
C        3.02969921       5.24817198       9.97556915        2       0.00008888      -0.00028911      -0.00786909
Ti       3.02865285       6.99775191       8.69496041        0      -0.00092184      -0.00020225      -0.00880565
Ti       4.54568792       6.12246064      11.29167896        0       0.00052419       0.00045670      -0.00333541
O        3.02982325       6.99713719      12.23159545        3      -0.00029761      -0.00059417      -0.11039577
O        4.54479595       6.12328615       7.77238061        1      -0.00032669       0.00033731       0.00290066
C        1.51492328       7.87204478       9.97237098        2       0.00020985       0.00000456      -0.00828573
Ti       1.51452693       9.62041099       8.69521291        0      -0.00036920      -0.00089327      -0.00906388
Ti       3.03265682       8.74793514      11.29731002        0       0.00092656       0.00097273      -0.00001082
O        1.51463894       9.62156304      12.23159545        3      -0.00024318      -0.00052997      -0.11451098
O        3.03077636       8.74726836       7.77297005        1       0.00047807       0.00029719       0.00392201
C        9.08991672      -0.00010264       9.97716226        2      -0.00021705       0.00004451      -0.00719357
Ti       9.08897407       1.74964325       8.69405935        0      -0.00045161       0.00015532      -0.00946590
Ti      10.60373920       0.87585054      11.29644602        0      -0.00135355       0.00039267       0.00155595
O        9.08966217       1.74949547      12.23159545        3      -0.00055143       0.00026226      -0.13020319
O       10.60490870       0.87475521       7.77410405        1      -0.00010597      -0.00013056       0.00403963
C        7.57493556       2.62394250       9.97473638        2      -0.00007123      -0.00019549      -0.00932154
Ti       7.57509106       4.37358644       8.69346361        0       0.00002319       0.00014763      -0.00867993
Ti       9.08906399       3.49778774      11.29167216        0      -0.00022767      -0.00102394      -0.00198099
O        7.57470333       4.37327502      12.23159545        3      -0.00078604      -0.00040074      -0.09929294
O        9.09043386       3.49850313       7.77257576        1       0.00008437      -0.00014347       0.00273460
C        6.05989654       5.24825462       9.97406859        2      -0.00020576      -0.00006463      -0.00923981
Ti       6.05982918       6.99640794       8.69377612        0      -0.00015303      -0.00063933      -0.00963959
Ti       7.57404652       6.12256354      11.29190280        0      -0.00011856       0.00018006      -0.00165162
O        6.05998783       6.99681410      12.23159545        3      -0.00021243      -0.00084917      -0.12651913
O        7.57510623       6.12335909       7.77252638        1       0.00015312       0.00010021       0.00276024
C        4.54488515       7.87208953       9.97742403        2      -0.00005940      -0.00042874      -0.00695126
Ti       4.54489701       9.62150279       8.69600436        0       0.00014616       0.00002595      -0.00895440
Ti       6.06030675       8.74474471      11.29540737        0      -0.00037046      -0.00118006       0.00132882
O        4.54627513       9.62231393      12.23159545        3       0.00000979      -0.00003100      -0.13640463
O        6.06000782       8.74676069       7.77395845        1      -0.00008917      -0.00005462       0.00398679
C        0.04508954       0.06744899      15.60001650       10      -0.00390527      -0.00052518       0.02971785
C        1.25790862       0.76780068      15.60001650       10      -0.00528889      -0.00358564      -0.01376568
C       -1.16856584       2.16827578      15.60001650       10       0.00008494       0.00008918       0.03529907
C        0.04473409       2.86708577      15.60001650       10       0.00247575      -0.00099736      -0.00994536
C       -2.38041690       4.26635833      15.60001650       10      -0.00248900       0.00185071       0.04978687
C       -1.16758267       4.96546276      15.60001650       10      -0.00324297       0.00002440       0.05092310
C       -3.59133809       6.36386372      15.60001650       10      -0.00562355       0.00195474       0.05198957
C       -2.37934036       7.06427471      15.60001650       10      -0.00408209       0.00257649       0.05569907
C       -4.80250518       8.46262260      15.60001650       10       0.00137473       0.00248320       0.03547273
C       -3.59046870       9.16375574      15.60001650       10      -0.00219370       0.00165173      -0.00708301
C        2.47100560       0.06778277      15.60001650       10      -0.00486197      -0.00292880       0.03780856
C        3.68240660       0.76860468      15.60001650       10      -0.00312254      -0.00090270       0.02503829
C        1.25806843       2.16832706      15.60001650       10       0.00123558      -0.00285368       0.03642168
C        2.47057550       2.86719581      15.60001650       10       0.00101818       0.00042144       0.02412785
C        0.04505443       4.26647864      15.60001650       10      -0.00151833      -0.00030509       0.02823022
C        1.25795619       4.96539254      15.60001650       10      -0.00141493       0.00123542       0.04905159
C       -1.16704574       6.36500884      15.60001650       10      -0.00317829      -0.00070477       0.04811797
C        0.04541871       7.06489311      15.60001650       10      -0.00204522       0.00276080       0.06173056
C       -2.37853681       8.46401589      15.60001650       10      -0.00178764       0.00231552       0.03135411
C       -1.16687304       9.16507705      15.60001650       10      -0.00082160       0.00370423       0.05324759
C        4.89400575       0.06886736      15.60001650       10      -0.00133826      -0.00214259       0.04393381
C        6.10505675       0.76878471      15.60001650       10       0.00034982      -0.00274273       0.07708537
C        3.68248548       2.16789873      15.60001650       10       0.00249367       0.00066025       0.04039053
C        4.89361619       2.86737036      15.60001650       10       0.00256979       0.00081243       0.09189284
C        2.47057800       4.26634257      15.60001650       10       0.00018842       0.00116333       0.04512072
C        3.68202358       4.96551860      15.60001650       10       0.00113247      -0.00059534       0.07699780
C        1.25792864       6.36514418      15.60001650       10      -0.00227672      -0.00037330       0.04847803
C        2.47028883       7.06458823      15.60001650       10      -0.00280020      -0.00013123       0.05685884
C        0.04525880       8.46494974      15.60001650       10      -0.00017272       0.00285559       0.04879588
C        1.25709125       9.16541078      15.60001650       10       0.00121358       0.00253736       0.05609823
C        7.31630260       0.06923607      15.60001650       10       0.00139792      -0.00333661       0.04665525
C        8.52785734       0.76890620      15.60001650       10       0.00294767      -0.00240732       0.03732577
C        6.10488402       2.16829601      15.60001650       10       0.00251658      -0.00221896       0.05820784
C        7.31612505       2.86736997      15.60001650       10       0.00385970       0.00123032       0.09377768
C        4.89390535       4.26596912      15.60001650       10       0.00246659      -0.00058145       0.05601932
C        6.10508560       4.96532531      15.60001650       10       0.00186074       0.00133423       0.09693279
C        3.68225089       6.36412080      15.60001650       10      -0.00138215      -0.00001323       0.04969983
C        4.89387619       7.06353741      15.60001650       10      -0.00191730       0.00332284       0.04612259
C        2.46874880       8.46438227      15.60001650       10       0.00269925       0.00133031       0.03637037
C        3.68051107       9.16405909      15.60001650       10       0.00480706       0.00297946      -0.00337004
C        9.73931038       0.06805950      15.60001650       10       0.00319009      -0.00177147       0.03596569
C       10.95231591       0.76793138      15.60001650       10      -0.00080218      -0.00196116      -0.00948372
C        8.52726585       2.16813380      15.60001650       10       0.00479819      -0.00240568       0.04013361
C        9.73906808       2.86737648      15.60001650       10       0.00591550      -0.00165287       0.03526507
C        7.31615344       4.26592353      15.60001650       10       0.00313654       0.00080593       0.05626732
C        8.52820250       4.96544505      15.60001650       10       0.00229361      -0.00135749       0.07736988
C        6.10542098       6.36375503      15.60001650       10      -0.00274492       0.00195287       0.03928470
C        7.31693478       7.06338122      15.60001650       10       0.00004751       0.00040086       0.04532810
C        4.89246934       8.46288600      15.60001650       10       0.00511752       0.00385700       0.03485214
C        6.10498809       9.16329734      15.60001650       10       0.00422510       0.00109567      -0.00594651
