131
Lattice="12.12 0.0 0.0 -6.06 10.496227893867395 0.0 0.0 0.0 40.0" Properties=species:S:1:pos:R:3:tags:I:1:forces:R:3 energy=-1205.1320269256423 stress="0.0028499730678319297 -1.5520813594008148e-07 2.474113808160003e-06 -1.5520813594008148e-07 0.002849749835659291 -1.6465252543369308e-06 2.474113808160003e-06 -1.6465252543369308e-06 0.00213473628133736" pbc="T T F"
C       -0.00105739       0.00035116      10.00551201        2       0.00018867      -0.00018689       0.00090291
Ti       0.00046875       1.74892946       8.69334396        0       0.00026208      -0.00002392       0.00083782
Ti       1.51716462       0.87442203      11.31425541        0       0.00091437      -0.00126190      -0.00012164
O        0.00050305       1.74988890      12.23159545        3      -0.00003713       0.00035981       0.08423391
O        1.51669643       0.87169753       7.77714632        1       0.00028264      -0.00046395       0.00037929
C       -1.51449658       2.62406923      10.00427496        2       0.00043802      -0.00014474       0.00085510
Ti      -1.51471429       4.37421501       8.69550327        0       0.00040280      -0.00042666       0.00132076
Ti       0.00077513       3.49973130      11.30909460        0       0.00088759       0.00045757      -0.00174761
O       -1.51391956       4.37511895      12.23159545        3       0.00046459      -0.00107287       0.10451158
O       -0.00082713       3.49843164       7.77202268        1       0.00033755       0.00001456       0.00020562
C       -3.02979331       5.24702510      10.00693416        2       0.00017574      -0.00034856       0.00100092
Ti      -3.03142630       6.99578641       8.70151376        0       0.00041273      -0.00024695       0.00189902
Ti      -1.51465898       6.12777970      11.32167348        0      -0.00072063       0.00141722       0.00120295
O       -3.03234140       6.99025039      12.23159545        3       0.00032883      -0.00129710       0.02869757
O       -1.51586320       6.12626038       7.78009440        1       0.00026047      -0.00014953       0.00125925
C       -4.54482081       7.87105069      10.01327560        2       0.00016157      -0.00030514       0.00090211
Ti      -4.54508480       9.62127698       8.70148184        0       0.00023168      -0.00016708       0.00116120
Ti      -3.02760876       8.74558820      11.33754410        0       0.00121150      -0.00050742       0.00260546
O       -4.54810401       9.62254340      12.23159545        3      -0.00066305       0.00029170       0.03700182
O       -3.02839382       8.74610248       7.78419709        1       0.00031200      -0.00022798       0.00161903
C        3.03111852      -0.00008235      10.01449632        2       0.00039404      -0.00012509       0.00083482
Ti       3.03006808       1.74950617       8.69809862        0       0.00042957      -0.00038008       0.00076986
Ti       4.54535407       0.87637204      11.31556430        0      -0.00017382      -0.00245367       0.00112405
O        3.03147889       1.75250153      12.23159545        3       0.00035918       0.00020577       0.09965569
O        4.54413077       0.87170215       7.77751128        1       0.00032311      -0.00072151       0.00098142
C        1.51538769       2.62419698      10.00433151        2       0.00065151      -0.00005576       0.00110045
Ti       1.51455300       4.37280574       8.69224523        0       0.00064436      -0.00002856       0.00131450
Ti       3.03048283       3.50014067      11.30767221        0       0.00064241      -0.00047209      -0.00214212
O        1.51644174       4.37427651      12.23159545        3       0.00101964       0.00005405       0.10310030
O        3.02991053       3.49644177       7.77159146        1       0.00027445      -0.00049361      -0.00014341
C        0.00181867       5.24718896      10.00415554        2       0.00059834      -0.00018700       0.00119912
Ti       0.00281310       6.99585835       8.69999164        0       0.00020422      -0.00010521       0.00115458
Ti       1.51765015       6.12133918      11.30738008        0      -0.00054092       0.00019055      -0.00059082
O        0.00604236       6.99414173      12.23159545        3       0.00075851      -0.00038481       0.08426870
O        1.51317676       6.12378239       7.77193336        1      -0.00018377       0.00012992       0.00063009
C       -1.51486790       7.87213783      10.02175544        2       0.00028373      -0.00025935       0.00039953
Ti      -1.51420528       9.62346408       8.70187361        0       0.00033253      -0.00034465       0.00181286
Ti      -0.00435635       8.74414871      11.32277931        0      -0.00172222       0.00006931       0.00125545
O       -1.50990514       9.62670022      12.23159545        3       0.00130945       0.00022838       0.00924612
O       -0.00347052       8.74598973       7.78037741        1       0.00021456      -0.00015583       0.00123420
C        6.06089307       0.00038038      10.00748685        2       0.00041161       0.00002770       0.00093637
Ti       6.06049577       1.74932331       8.69533349        0       0.00012241      -0.00013192       0.00096848
Ti       7.57504139       0.87327447      11.30964526        0      -0.00027739      -0.00023384      -0.00135614
O        6.06276748       1.75252209      12.23159545        3       0.00073732       0.00072650       0.10258828
O        7.57437064       0.87344209       7.77278182        1       0.00023853      -0.00018858       0.00017948
C        4.54521510       2.62508975      10.00394232        2       0.00008843      -0.00015086       0.00062899
Ti       4.54544781       4.37332900       8.69014212        0       0.00047498      -0.00034916       0.00141172
Ti       6.05970553       3.49895081      11.30831469        0      -0.00023782       0.00001513      -0.00221297
O        4.54603512       4.37352233      12.23159545        3       0.00037806      -0.00010962       0.09313659
O        6.06093852       3.49802836       7.77160357        1       0.00063863      -0.00037314      -0.00011287
C        3.03077953       5.24768178      10.00217452        2       0.00046907      -0.00029142       0.00060271
Ti       3.03025838       6.99824714       8.69220189        0       0.00037310      -0.00053197       0.00130351
Ti       4.54360536       6.12179219      11.30755521        0       0.00055885      -0.00042607      -0.00235760
O        3.03000926       6.99645448      12.23159545        3       0.00053192      -0.00080232       0.10208780
O        4.54673361       6.12397927       7.77145034        1       0.00050488      -0.00010483      -0.00024690
C        1.51674641       7.87099657      10.00411283        2       0.00052554      -0.00041247       0.00113998
Ti       1.51454442       9.62090297       8.69587969        0       0.00045854      -0.00008459       0.00128309
Ti       3.02917986       8.74591305      11.30902187        0       0.00003469      -0.00106499      -0.00177688
O        1.51374710       9.61939862      12.23159545        3       0.00121532       0.00002024       0.10633811
O        3.02966465       8.74779822       7.77195011        1       0.00001436      -0.00028489       0.00019944
C        9.09014751      -0.00030991      10.00413044        2       0.00032139      -0.00032673       0.00088945
Ti       9.08960182       1.74956166       8.69117253        0       0.00053652      -0.00030658       0.00098607
Ti      10.60559351       0.87440875      11.30978569        0       0.00048416      -0.00039940      -0.00205597
O        9.08914466       1.74985187      12.23159545        3       0.00022590      -0.00010733       0.07572445
O       10.60559881       0.87444787       7.77191872        1       0.00038369      -0.00024562      -0.00035657
C        7.57566330       2.62372505      10.00259996        2       0.00017090      -0.00010341       0.00121445
Ti       7.57531975       4.37300177       8.69510236        0       0.00026613      -0.00011268       0.00090636
Ti       9.09130229       3.49947884      11.30969738        0       0.00010444       0.00032814      -0.00148865
O        7.57375717       4.37037063      12.23159545        3      -0.00033611      -0.00074315       0.10214925
O        9.09085710       3.49973660       7.77258452        1       0.00033853      -0.00016827       0.00011769
C        6.05937603       5.24753199      10.00350282        2       0.00017410       0.00002625       0.00074790
Ti       6.06018634       6.99746569       8.69769995        0       0.00050360      -0.00020523       0.00078513
Ti       7.57331236       6.12168895      11.31491228        0       0.00189912       0.00124361       0.00074805
O        6.05721134       6.99372294      12.23159545        3      -0.00007758      -0.00051890       0.10979086
O        7.57725109       6.12493698       7.77687147        1       0.00071888       0.00000028       0.00095313
C        4.54496753       7.87195243      10.00406597        2       0.00030896      -0.00059280       0.00110784
Ti       4.54557709       9.62139929       8.69312089        0       0.00006643      -0.00024728       0.00093739
Ti       6.06017873       8.74483110      11.31346070        0       0.00163364       0.00004192      -0.00022360
O        4.54439544       9.62078488      12.23159545        3      -0.00029921      -0.00032346       0.07259802
O        6.06332046       8.74709350       7.77651962        1       0.00051441      -0.00003489       0.00044799
C        0.04049911       0.07029211      17.24869419       10      -0.00231183       0.00009373       0.01636266
C        1.24915642       0.77095624      17.23340214       10       0.00347149      -0.00040624       0.00709801
C       -1.16974930       2.16830061      17.25401489       10      -0.00147409      -0.00006687      -0.00691294
C        0.04222157       2.86807190      17.23630446       10      -0.00113561      -0.00043574      -0.00286431
C       -2.38142515       4.26534616      17.24869419       10      -0.00161420      -0.00132957      -0.02020106
C       -1.16997717       4.96214109      17.23340214       10      -0.00149541       0.00040802      -0.02910518
C       -3.58667053       6.36758693      17.18558344       10      -0.00061518      -0.00052393       0.01595421
C       -2.38075069       7.04960943      17.14376122       10      -0.00086766       0.00293597      -0.13786975
C       -4.80137879       8.47096407      17.18558344       10      -0.00277645      -0.00024972       0.01981339
C       -3.60833878       9.17456952      17.14376122       10       0.00425354      -0.00067073      -0.13546960
C        2.46421645       0.06343282      17.18558344       10       0.00145132      -0.00280776       0.02105057
C        3.67896123       0.76776767      17.15350476       10      -0.00066825       0.00012350      -0.05190927
C        1.25452112       2.16884516      17.22235917       10      -0.00082379      -0.00067470      -0.00440905
C        2.46597296       2.86676862      17.20044476       10      -0.00151076       0.00157202      -0.01928901
C        0.04303111       4.26732695      17.22235917       10      -0.00120640       0.00020440      -0.01656337
C        1.25308782       4.96743464      17.20044476       10      -0.00059435       0.00056602      -0.03100330
C       -1.17544421       6.36784540      17.18558344       10      -0.00248533       0.00068124       0.02578955
C        0.04223445       7.06696447      17.15350476       10      -0.00092223      -0.00027835      -0.09763200
C       -2.38134995       8.46604516      16.69095556       10      -0.00008728       0.00115668      -0.19515547
C       -1.15447956       9.17381397      17.14376122       10      -0.00115864      -0.00042688      -0.13594246
C        4.89327296       0.06297555      17.18558344       10       0.00011069      -0.00014503       0.01982828
C        6.10811768       0.77035576      17.23340214       10       0.00000060       0.00071123      -0.01643771
C        3.67911236       2.16434484      17.18583847       10      -0.00104472       0.00114751      -0.03179856
C        4.89209030       2.86649945      17.20044476       10      -0.00063482       0.00157152      -0.01594662
C        2.46734536       4.26756413      17.19776315       10      -0.00095213       0.00140435      -0.03333580
C        3.67911069       4.96720566      17.19276238       10      -0.00174371       0.00073551      -0.03255340
C        1.25139544       6.36868441      17.18583847       10      -0.00028510       0.00030513      -0.01891595
C        2.46573728       7.06779365      17.20044476       10      -0.00079457       0.00106168      -0.03311910
C        0.03863870       8.47090859      17.18558344       10      -0.00023059      -0.00002445       0.03359035
C        1.25877001       9.16883722      17.23340214       10      -0.00040737       0.00152816      -0.02994727
C        7.31652756       0.07011517      17.24869419       10       0.00171122       0.00209874      -0.01414604
C        8.52868577       0.76976568      17.25563271       10       0.00154777       0.00220667      -0.02318514
C        6.10333048       2.16890049      17.22235917       10       0.00021787       0.00074093      -0.03262338
C        7.31541345       2.86759675      17.23630446       10       0.00068102       0.00045485      -0.00715543
C        4.89163946       4.26722509      17.19776315       10      -0.00207482       0.00148750      -0.04619109
C        6.10483716       4.96701372      17.20044476       10      -0.00199469       0.00068072      -0.00877423
C        3.67910486       6.36629581      17.19776315       10      -0.00183251      -0.00010854      -0.03205666
C        4.89150805       7.06776277      17.20044476       10      -0.00165115      -0.00035615      -0.02315206
C        2.46706186       8.46572003      17.22235917       10       0.00014067       0.00139427      -0.01580684
C        3.67843305       9.16612161      17.23630446       10      -0.00025229       0.00146654      -0.00704368
C        9.73850885       0.06939761      17.25401489       10      -0.00147011      -0.00038959      -0.01401948
C       10.94812290       0.77018158      17.25563271       10       0.00286284       0.00078674       0.00812360
C        8.52680539       2.16823794      17.25401489       10       0.00052786       0.00012011      -0.01945243
C        9.73871268       2.86566372      17.25563271       10       0.00025605      -0.00132333      -0.01921466
C        7.31454504       4.26680809      17.22235917       10      -0.00250908      -0.00044681      -0.03670399
C        8.52801352       4.96184618      17.23340214       10      -0.00050222      -0.00223519      -0.01377213
C        6.10656306       6.36844456      17.18583847       10      -0.00143879       0.00042743      -0.03587026
C        7.31587179       7.06680065      17.15350476       10       0.00005695      -0.00060770      -0.05388582
C        4.89035159       8.46588546      17.22235917       10      -0.00203882      -0.00095881      -0.01371097
C        6.09819229       9.16941996      17.23340214       10       0.00243432       0.00156954       0.00186864
O       -2.37521871       8.46582594      15.36416410       11      -0.00298907       0.00195108      -0.00298668
