130
Lattice="12.12 0.0 0.0 -6.06 10.496227893867395 0.0 0.0 0.0 40.0" Properties=species:S:1:pos:R:3:tags:I:1:forces:R:3 energy=-1202.3402587149476 stress="0.002899526649150519 -2.6365615624969917e-07 1.0167923788016252e-07 -2.6365615624969917e-07 0.0028997641651092713 9.724831432721165e-08 1.0167923788016252e-07 9.724831432721165e-08 0.002589558604162744" pbc="T T F"
C       -0.00001388      -0.00004701      10.00480483        2       0.00007060       0.00026562      -0.00519148
Ti       0.00000227       1.74938006       8.71688504        0      -0.00013276      -0.00051059      -0.00116404
Ti       1.51426539       0.87439520      11.30472973        0      -0.00129597      -0.00136747       0.00728961
O        0.00000249       1.74923221      12.23008024        3       0.00029967       0.00124881      -0.02653386
O        1.51521059       0.87477807       7.77954657        1       0.00013469       0.00007439       0.00199394
C       -1.51494694       2.62407488      10.00562159        2      -0.00009633       0.00060545      -0.00459838
Ti      -1.51497534       4.37335724       8.71827417        0      -0.00004149      -0.00018680      -0.00147431
Ti       0.00017027       3.49795094      11.30522584        0      -0.00105459      -0.00206752       0.00627876
O       -1.51433759       4.37265207      12.23008024        3       0.00050822       0.00022081      -0.00408245
O       -0.00005856       3.49924056       7.77996989        1       0.00010169      -0.00003574       0.00141110
C       -3.02994668       5.24815767      10.00667355        2       0.00007526      -0.00023352      -0.00418161
Ti      -3.03007318       6.99754860       8.71835816        0      -0.00018505       0.00029487      -0.00190142
Ti      -1.51516201       6.12267734      11.30532357        0      -0.00113433       0.00009050       0.00621236
O       -3.03029703       6.99858438      12.23008024        3       0.00027810      -0.00037092      -0.00608774
O       -1.51500010       6.12283650       7.78047830        1       0.00001848       0.00006809       0.00142014
C       -4.54496647       7.87219009      10.00580100        2       0.00011793      -0.00051020      -0.00504582
Ti      -4.54504049       9.62157726       8.71699660        0      -0.00026478       0.00006574      -0.00151477
Ti      -3.03066877       8.74748883      11.30513489        0      -0.00149160       0.00054003       0.00712278
O       -4.54525125       9.62172994      12.23008024        3       0.00056582       0.00018332      -0.02665437
O       -3.02965890       8.74655531       7.77996885        1      -0.00001235       0.00005328       0.00188352
C        3.02992877      -0.00005804      10.00548339        2       0.00061338       0.00054517      -0.00465156
Ti       3.02984274       1.74931465       8.71783952        0      -0.00047422      -0.00056389      -0.00117444
Ti       4.54440736       0.87493803      11.30555651        0      -0.00023889      -0.00066779       0.00574152
O        3.02793559       1.74821093      12.23008024        3       0.00035034       0.00082334      -0.01103160
O        4.54531201       0.87478544       7.78027436        1      -0.00008043       0.00000114       0.00117779
C        1.51490631       2.62403183      10.00542692        2       0.00060327       0.00080238      -0.00399474
Ti       1.51498123       4.37337108       8.71806692        0      -0.00035413      -0.00025775      -0.00109726
Ti       3.02980812       3.49811545      11.30569629        0      -0.00010024      -0.00134462       0.00480262
O        1.51469624       4.37274177      12.23008024        3       0.00058698       0.00020152      -0.00568159
O        3.03025062       3.49901683       7.78033336        1      -0.00004917      -0.00002689       0.00093449
C        0.00002170       5.24822749      10.00628941        2       0.00046634       0.00012457      -0.00351935
Ti       0.00001451       6.99750003       8.71802271        0      -0.00020031       0.00016262      -0.00125907
Ti       1.51526552       6.12263036      11.30530791        0      -0.00004369       0.00044038       0.00527174
O        0.00012702       6.99774369      12.23008024        3       0.00057721      -0.00043302      -0.01271626
O        1.51502262       6.12288537       7.78041833        1       0.00000151      -0.00001811       0.00114315
C       -1.51495865       7.87223080      10.00631003        2       0.00056750      -0.00022234      -0.00413550
Ti      -1.51508079       9.62156962       8.71803526        0      -0.00042581      -0.00008621      -0.00160129
Ti       0.00002471       8.74721675      11.30523463        0      -0.00031567       0.00082878       0.00597116
O       -1.51572251       9.62187133      12.23008024        3       0.00039250       0.00034603      -0.00904146
O        0.00005231       8.74684080       7.78036152        1      -0.00006516      -0.00003597       0.00138764
C        6.05999815       0.00002637      10.00637397        2       0.00000705       0.00021055      -0.00384447
Ti       6.05997868       1.74926129       8.71821068        0       0.00017920      -0.00028723      -0.00089207
Ti       7.57514708       0.87498270      11.30573846        0       0.00130960       0.00013759       0.00590065
O        6.05960257       1.74870477      12.23008024        3      -0.00046248       0.00030904      -0.01539029
O        7.57476937       0.87482402       7.78040681        1      -0.00004182      -0.00000228       0.00106491
C        4.54487359       2.62396334      10.00634028        2       0.00008188       0.00050962      -0.00328849
Ti       4.54488124       4.37347208       8.71830157        0       0.00007112       0.00013993      -0.00076579
Ti       6.05986536       3.49861293      11.30425944        0       0.00116473      -0.00019523       0.00511294
O        4.54416272       4.37310641      12.23008024        3      -0.00045347      -0.00015212      -0.01271827
O        6.06005273       3.49881692       7.78074242        1      -0.00008024       0.00001655       0.00080252
C        3.02998655       5.24813405      10.00646443        2      -0.00002880      -0.00025296      -0.00299932
Ti       3.03010809       6.99755779       8.71825732        0       0.00017891       0.00052113      -0.00129562
Ti       4.54519913       6.12263937      11.30606146        0       0.00144172       0.00171969       0.00517994
O        3.03057076       6.99845041      12.23008024        3      -0.00047077      -0.00072129      -0.00756332
O        4.54501126       6.12254434       7.78055072        1       0.00000592      -0.00000206       0.00101892
C        1.51506976       7.87226857      10.00632574        2      -0.00019679      -0.00054241      -0.00366837
Ti       1.51512160       9.62159434       8.71812242        0       0.00033697       0.00010043      -0.00137811
Ti       3.03086050       8.74741607      11.30520952        0       0.00142105       0.00162257       0.00652296
O        1.51598621       9.62184286      12.23008024        3      -0.00030894      -0.00027153      -0.00975975
O        3.02967277       8.74663107       7.78003595        1       0.00011055      -0.00000762       0.00144130
C        9.09005591       0.00000690      10.00569155        2      -0.00063994       0.00000517      -0.00471451
Ti       9.09013971       1.74932819       8.71813406        0       0.00051686      -0.00025101      -0.00130621
Ti      10.60573721       0.87453865      11.30483364        0       0.00051067      -0.00078472       0.00743882
O        9.09180804       1.74835407      12.23008024        3      -0.00023114       0.00025877      -0.00590006
O       10.60466893       0.87479797       7.77965080        1       0.00006723       0.00007029       0.00189379
C        7.57504185       2.62400607      10.00655546        2      -0.00048383       0.00021359      -0.00382977
Ti       7.57509224       4.37347446       8.71843772        0       0.00032587       0.00017647      -0.00121808
Ti       9.09011536       3.49832794      11.30603084        0      -0.00000501      -0.00113004       0.00610619
O        7.57554133       4.37339706      12.23008024        3      -0.00037667      -0.00018009      -0.01057064
O        9.08974121       3.49899142       7.78054529        1       0.00004909       0.00004803       0.00108897
C        6.06000352       5.24811800      10.00668367        2      -0.00047550      -0.00053707      -0.00369856
Ti       6.06000540       6.99761246       8.71833293        0       0.00027161       0.00065627      -0.00163107
Ti       7.57476410       6.12285585      11.30611445        0      -0.00008598       0.00096639       0.00638332
O        6.05999928       6.99925202      12.23008024        3      -0.00048698      -0.00073675      -0.00387732
O        7.57503735       6.12249598       7.78062032        1       0.00000304       0.00006113       0.00129723
C        4.54503139       7.87220505      10.00582034        2      -0.00048747      -0.00083290      -0.00451871
Ti       4.54508339       9.62159968       8.71712035        0       0.00040881       0.00028525      -0.00131309
Ti       6.06011927       8.74745877      11.30485344        0       0.00020155       0.00130982       0.00771844
O        4.54556328       9.62192124      12.23008024        3      -0.00068210      -0.00042173      -0.02591183
O        6.05995845       8.74644813       7.77970729        1       0.00009150      -0.00005187       0.00206380
C        0.04506795       0.06757613      16.16692235       10      -0.00413390      -0.00274226      -0.03999104
C        1.25718695       0.76738220      16.16692235       10       0.00205518       0.00092613       0.01443894
C       -1.16724222       2.16715035      16.16692235       10       0.00049849      -0.00582359      -0.01403624
C        0.04486045       2.86684774      16.16692235       10       0.00052654       0.00135701       0.01144411
C       -2.37904898       4.26623925      16.16692235       10      -0.00021291      -0.00331627       0.00783679
C       -1.16695980       4.96591684      16.16692235       10       0.00134966       0.00130779       0.00055706
C       -3.59073030       6.36518944      16.16692235       10      -0.00125740      -0.00391878       0.00882145
C       -2.37866538       7.06486381      16.16692235       10      -0.00133921       0.00279238      -0.00017771
C       -4.80288444       8.46426484      16.16692235       10      -0.00187712      -0.00150064      -0.00909460
C       -3.59083790       9.16402488      16.16692235       10       0.00480646      -0.00136084       0.00902933
C        2.46935605       0.06739672      16.16692235       10      -0.00244914       0.00200042      -0.01732057
C        3.68128164       0.76729382      16.16692235       10      -0.00309994      -0.00339956       0.00721865
C        1.25695513       2.16711834      16.16692235       10       0.00047222      -0.00390763      -0.01940283
C        2.46902279       2.86661802      16.16692235       10      -0.00135533       0.00131529       0.00857968
C        0.04499842       4.26631294      16.16692235       10      -0.00148302      -0.00186758       0.01743208
C        1.25702219       4.96585560      16.16692235       10      -0.00072657       0.00174180      -0.00089596
C       -1.16662248       6.36532025      16.16692235       10      -0.00660457      -0.00216043       0.02695503
C        0.04521524       7.06499218      16.16692235       10      -0.00205651       0.00077396      -0.01185881
C       -2.37877695       8.46427782      16.16692235       10      -0.00138974       0.00140269       0.01961695
C       -1.16692505       9.16418572      16.16692235       10       0.00085315      -0.00622043      -0.00335649
C        4.89326801       0.06739383      16.16692235       10      -0.00160701       0.00625895       0.01043486
C        6.10507552       0.76723421      16.16692235       10      -0.00286283      -0.00391553       0.00256163
C        3.68109423       2.16689173      16.16692235       10       0.00257488      -0.00055296       0.00015012
C        4.89287682       2.86666872      16.16692235       10       0.00120906      -0.00197581      -0.00541924
C        2.46903399       4.26616852      16.16692235       10       0.00243880       0.00041720       0.00809854
C        3.68093560       4.96587273      16.16692235       10      -0.00264315      -0.00036624       0.00416904
C        1.25704463       6.36523180      16.16692235       10      -0.00130756       0.00193173       0.02675955
C        2.46895419       7.06491324      16.16692235       10      -0.00255291       0.00057634      -0.00238975
C        0.04492518       8.46433710      16.16692235       10       0.00288147       0.00378551       0.02966566
C        1.25676618       9.16420408      16.16692235       10       0.00167762      -0.00635298      -0.00393344
C        7.31689498       0.06739579      16.16692235       10      -0.00087911       0.00606309       0.01173253
C        8.52882026       0.76726356      16.16692235       10       0.00140508      -0.00144847       0.00547758
C        6.10483789       2.16672974      16.16692235       10       0.00202994      -0.00076716      -0.00139916
C        7.31675849       2.86657328      16.16692235       10       0.00661806       0.00210538      -0.00681617
C        4.89291253       4.26622533      16.16692235       10       0.00063353      -0.00172967      -0.00113337
C        6.10498498       4.96584407      16.16692235       10       0.00149334       0.00188869      -0.00837953
C        3.68092714       6.36522701      16.16692235       10       0.00125797      -0.00142747       0.01039188
C        4.89295821       7.06486169      16.16692235       10      -0.00050970       0.00389957       0.00584528
C        2.46861706       8.46428616      16.16692235       10       0.00299753       0.00324627       0.02345226
C        3.68058074       9.16406752      16.16692235       10       0.00232143      -0.00204963       0.00578250
C        9.74081587       0.06742537      16.16692235       10      -0.00488724       0.00136001      -0.01083863
C       10.95287980       0.76738731      16.16692235       10       0.00175822       0.00139373       0.01170381
C        8.52862606       2.16688347      16.16692235       10       0.00122960      -0.00271034       0.00092370
C        9.74071241       2.86662085      16.16692235       10       0.00127798       0.00382033       0.00981745
C        7.31701982       4.26613475      16.16692235       10      -0.00124506      -0.00132211      -0.00129449
C        8.52907622       4.96578557      16.16692235       10       0.00034217       0.00337974       0.00567098
C        6.10503442       6.36515563      16.16692235       10      -0.00050586      -0.00150993       0.00102079
C        7.31714108       7.06477353      16.16692235       10      -0.00062534       0.00581278       0.00775706
C        4.89274904       8.46434081      16.16692235       10      -0.00207592      -0.00094158      -0.00769191
C        6.10489076       9.16412179      16.16692235       10       0.00394916       0.00270627       0.01139575
