130
Lattice="12.12 0.0 0.0 -6.06 10.496227893867395 0.0 0.0 0.0 40.0" Properties=species:S:1:pos:R:3:tags:I:1:forces:R:3 energy=-1200.5399331234878 stress="0.0027859165598753755 -9.345658544291126e-08 6.926258170168549e-08 -9.345658544291126e-08 0.002786184886963793 -3.3125638308122694e-07 6.926258170168549e-08 -3.3125638308122694e-07 0.0026173618023858152" pbc="T T F"
C       -0.00012867      -0.00019127       9.99613387        2       0.00032208       0.00027517       0.00392177
Ti       0.00003825       1.74924997       8.69760314        0      -0.00005927      -0.00008819       0.00654432
Ti       1.51478204       0.87458444      11.31430184        0       0.00010731       0.00021175       0.00210437
O        0.00038083       1.74687348      12.23159545        3      -0.00010042       0.00020954      -0.05585026
O        1.51523726       0.87478307       7.77273162        1       0.00024271      -0.00000916       0.00497719
C       -1.51563936       2.62449933       9.99712796        2       0.00052212      -0.00039748       0.00508333
Ti      -1.51499963       4.37324130       8.69778375        0      -0.00007507       0.00006165       0.00857385
Ti       0.00000905       3.49878957      11.31713687        0       0.00038606      -0.00024420       0.00517295
O       -1.51411281       4.37152397      12.23159545        3      -0.00030337      -0.00035896      -0.03377749
O       -0.00001474       3.49913825       7.77324346        1      -0.00006541       0.00110487       0.00684265
C       -3.03071504       5.24771175       9.99851732        2       0.00017895      -0.00004768       0.00597018
Ti      -3.03014963       6.99753260       8.69782816        0       0.00003054      -0.00011793       0.00887599
Ti      -1.51525542       6.12269666      11.31496086        0      -0.00003356      -0.00007528       0.00551528
O       -3.03090664       6.99895154      12.23159545        3      -0.00051143      -0.00003961      -0.03543497
O       -1.51490882       6.12289332       7.77351884        1       0.00024347       0.00029274       0.00820162
C       -4.54502457       7.87141067       9.99738638        2      -0.00023149       0.00049761       0.00522329
Ti      -4.54512886       9.62165225       8.69756959        0      -0.00008200       0.00006524       0.00689094
Ti      -3.03006044       8.74695998      11.31720826        0      -0.00062018       0.00026755       0.00512161
O       -4.54730782       9.62365882      12.23159545        3      -0.00010905      -0.00011169      -0.05132640
O       -3.02968604       8.74661968       7.77330748        1       0.00090657      -0.00065509       0.00726717
C        3.03063750       0.00013240       9.99706947        2      -0.00074876       0.00013709       0.00510597
Ti       3.02969235       1.74922667       8.69762948        0      -0.00038654      -0.00029140       0.00745455
Ti       4.54515015       0.87535546      11.31596785        0      -0.00010839      -0.00010459       0.00496946
O        3.02658774       1.74752411      12.23159545        3       0.00026060       0.00010659      -0.03375140
O        4.54532089       0.87484965       7.77340913        1       0.00039745      -0.00018500       0.00739316
C        1.51548182       2.62454988       9.99695638        2      -0.00017394      -0.00044337       0.00504134
Ti       1.51501324       4.37321291       8.69781438        0      -0.00001262       0.00007343       0.00828622
Ti       3.03068234       3.49840287      11.31598258        0       0.00007190      -0.00013775       0.00534078
O        1.51430227       4.37133174      12.23159545        3       0.00031460      -0.00020283      -0.03515594
O        3.03035408       3.49894352       7.77341908        1       0.00017288       0.00029674       0.00713614
C       -0.00013361       5.24788015       9.99823547        2       0.00019269      -0.00061454       0.00634359
Ti      -0.00003477       6.99740443       8.69822391        0       0.00002931       0.00004834       0.00960362
Ti       1.51523046       6.12285226      11.31484129        0      -0.00009517      -0.00019847       0.00566637
O       -0.00000083       6.99724676      12.23159545        3       0.00006212      -0.00020059      -0.05084891
O        1.51496619       6.12294699       7.77360196        1      -0.00022486       0.00037113       0.00815789
C       -1.51542573       7.87213600       9.99839139        2      -0.00008059       0.00004898       0.00633211
Ti      -1.51518441       9.62164807       8.69785038        0       0.00017915      -0.00002113       0.00882263
Ti       0.00012356       8.74684881      11.31464375        0       0.00000161      -0.00039426       0.00529622
O       -1.51681715       9.62181698      12.23159545        3      -0.00014985       0.00031171      -0.03754805
O        0.00006985       8.74674063       7.77362699        1       0.00008409      -0.00036676       0.00830188
C        6.06003236       0.00080558       9.99847088        2      -0.00003311      -0.00015895       0.00613294
Ti       6.05996860       1.74939779       8.69756878        0       0.00011242      -0.00002776       0.00821248
Ti       7.57474513       0.87535963      11.31571311        0      -0.00021425      -0.00002187       0.00550898
O        6.05978020       1.74943549      12.23159545        3      -0.00013364      -0.00004522      -0.04344510
O        7.57474557       0.87483580       7.77342760        1      -0.00027640      -0.00016733       0.00778365
C        4.54534071       2.62425631       9.99875909        2      -0.00054436      -0.00008858       0.00593536
Ti       4.54497258       4.37341088       8.69765279        0       0.00004949      -0.00007702       0.00785212
Ti       6.06008871       3.49880565      11.31232470        0      -0.00019258      -0.00008586       0.00428620
O        4.54487188       4.37303800      12.23159545        3      -0.00019309      -0.00011458      -0.04277874
O        6.06002751       3.49879164       7.77344436        1       0.00004778      -0.00000097       0.00736332
C        3.03076106       5.24773629       9.99845285        2      -0.00021527      -0.00013259       0.00644850
Ti       3.03018398       6.99751018       8.69795036        0      -0.00010482       0.00001018       0.00886907
Ti       4.54553419       6.12221435      11.31566708        0      -0.00006866      -0.00047992       0.00555941
O        3.03081244       6.99880605      12.23159545        3       0.00036499      -0.00026320      -0.03978434
O        4.54505534       6.12251481       7.77351798        1      -0.00008060      -0.00014836       0.00773867
C        1.51544216       7.87230859       9.99856749        2       0.00039006      -0.00009687       0.00648708
Ti       1.51514944       9.62166149       8.69790275        0      -0.00007901      -0.00005407       0.00923447
Ti       3.03034651       8.74710842      11.31712318        0       0.00101313       0.00014107       0.00547739
O        1.51659714       9.62158886      12.23159545        3       0.00027832       0.00023723      -0.04070994
O        3.02967867       8.74663620       7.77341677        1      -0.00084222      -0.00053108       0.00759506
C        9.08949163       0.00034100       9.99736542        2       0.00063397      -0.00005194       0.00523729
Ti       9.09031370       1.74926859       8.69749030        0       0.00042020      -0.00028697       0.00821658
Ti      10.60502045       0.87476268      11.31466600        0      -0.00007638       0.00027269       0.00177445
O        9.09279141       1.74800550      12.23159545        3       0.00009476       0.00002627      -0.03404571
O       10.60472361       0.87477756       7.77278241        1      -0.00033862       0.00002179       0.00510950
C        7.57486919       2.62428955       9.99896316        2      -0.00010375      -0.00018753       0.00577958
Ti       7.57504256       4.37344801       8.69757443        0       0.00006862      -0.00010150       0.00827867
Ti       9.08933607       3.49843547      11.31582988        0      -0.00023726      -0.00007873       0.00512561
O        7.57512908       4.37326327      12.23159545        3       0.00005512       0.00002626      -0.04142003
O        9.08966348       3.49890330       7.77338754        1      -0.00013865       0.00026815       0.00739879
C        6.06012545       5.24792225       9.99917024        2      -0.00036560      -0.00001529       0.00594046
Ti       6.06003928       6.99779807       8.69760880        0       0.00004537       0.00050138       0.00794768
Ti       7.57446072       6.12228653      11.31570262        0      -0.00005699      -0.00044603       0.00472243
O        6.06012967       6.99999092      12.23159545        3       0.00016914      -0.00005732      -0.03481982
O        7.57494155       6.12248041       7.77346372        1       0.00015172      -0.00019358       0.00759289
C        4.54515304       7.87152178       9.99750688        2       0.00025466       0.00030191       0.00533361
Ti       4.54521104       9.62164841       8.69754126        0       0.00010015       0.00019905       0.00703831
Ti       6.06008725       8.74669455      11.31475965        0       0.00003110      -0.00074392       0.00219621
O        4.54817213       9.62368545      12.23159545        3       0.00010704      -0.00003473      -0.04505808
O        6.05997507       8.74651223       7.77281732        1       0.00000965      -0.00041867       0.00532382
C        0.04483429       0.06767689      16.16843756       10       0.00640505       0.00150110      -0.03705487
C        1.25635525       0.76673213      16.16843756       10       0.00299971       0.00497313       0.00737392
C       -1.16623508       2.16586420      16.16843756       10       0.00612749      -0.00017223      -0.01983179
C        0.04485152       2.86529041      16.16843756       10       0.00000460       0.00323521       0.01423461
C       -2.37821359       4.26594202      16.16843756       10       0.00389800      -0.00311264       0.01059890
C       -1.16662377       4.96514126      16.16843756       10       0.00036789       0.00286683      -0.00166254
C       -3.59035413       6.36601860      16.16843756       10       0.00361472      -0.00195198       0.01183772
C       -2.37869308       7.06523440      16.16843756       10      -0.00123429      -0.00077498      -0.00363334
C       -4.80287418       8.46596598      16.16843756       10       0.00144259      -0.00327617      -0.01541884
C       -3.59147097       9.16460904      16.16843756       10      -0.00058491      -0.00195376       0.01487855
C        2.46777911       0.06680352      16.16843756       10       0.00345630       0.00603805      -0.01736658
C        3.67996428       0.76696258      16.16843756       10       0.00316843       0.00269992       0.00980966
C        1.25578904       2.16562171      16.16843756       10       0.00119031       0.00444459      -0.02142178
C        2.46814956       2.86584207      16.16843756       10       0.00151091       0.00081239       0.01154661
C        0.04504103       4.26546000      16.16843756       10      -0.00007184       0.00299685       0.02467991
C        1.25673863       4.96508580      16.16843756       10      -0.00041780       0.00095165      -0.00197814
C       -1.16626374       6.36518086      16.16843756       10      -0.00168979       0.00494695       0.03466652
C        0.04540333       7.06500234      16.16843756       10      -0.00278238      -0.00031344      -0.02381870
C       -2.37880326       8.46447678      16.16843756       10      -0.00049835       0.00065757       0.02730884
C       -1.16736346       9.16427055      16.16843756       10      -0.00054073      -0.00303346      -0.00467456
C        4.89228542       0.06677429      16.16843756       10       0.00083816       0.00462799       0.01573615
C        6.10461644       0.76711747      16.16843756       10       0.00228659       0.00095887       0.00243113
C        3.67942444       2.16595907      16.16843756       10       0.00025233       0.00037113      -0.00408251
C        4.89225375       2.86660808      16.16843756       10       0.00275793      -0.00312652       0.01046268
C        2.46803932       4.26576313      16.16843756       10       0.00027883       0.00042220       0.01186071
C        3.68060072       4.96606551      16.16843756       10       0.00079599      -0.00083830       0.00392877
C        1.25702839       6.36525739      16.16843756       10      -0.00254982       0.00289973       0.03687198
C        2.46922904       7.06555094      16.16843756       10      -0.00037872      -0.00084041      -0.00672097
C        0.04525325       8.46436290      16.16843756       10      -0.00227824      -0.00063424       0.03828348
C        1.25752422       9.16443743      16.16843756       10      -0.00106680      -0.00431393      -0.00754041
C        7.31713177       0.06701221      16.16843756       10       0.00060367       0.00339703       0.01817121
C        8.52934852       0.76737209      16.16843756       10       0.00087835      -0.00070446       0.00693773
C        6.10451070       2.16614997      16.16843756       10       0.00315688       0.00057523      -0.00090833
C        7.31692077       2.86673096      16.16843756       10       0.00212814      -0.00467077       0.01134679
C        4.89210555       4.26659911      16.16843756       10       0.00138453      -0.00108291      -0.00288577
C        6.10490874       4.96648066      16.16843756       10       0.00029475      -0.00221197       0.01262860
C        3.68072614       6.36618996      16.16843756       10      -0.00151046      -0.00131102       0.01565329
C        4.89335730       7.06607844      16.16843756       10      -0.00183358      -0.00424573       0.00666155
C        2.46930249       8.46487012      16.16843756       10      -0.00392334      -0.00310420       0.03109933
C        3.68193597       9.16510961      16.16843756       10      -0.00415126      -0.00621649       0.01415696
C        9.74175616       0.06727995      16.16843756       10       0.00053736       0.00182131      -0.01127717
C       10.95332461       0.76700110      16.16843756       10      -0.00160726       0.00363643       0.00849361
C        8.52978766       2.16623324      16.16843756       10       0.00163483       0.00086326      -0.00245921
C        9.74138659       2.86606339      16.16843756       10      -0.00371769       0.00258579       0.01183412
C        7.31744481       4.26661173      16.16843756       10      -0.00043725      -0.00230712      -0.00516107
C        8.52934304       4.96585932      16.16843756       10      -0.00423105       0.00376658       0.00562362
C        6.10511525       6.36692725      16.16843756       10      -0.00033278      -0.00237551      -0.00209308
C        7.31730508       7.06573786      16.16843756       10      -0.00624838       0.00070645       0.00971345
C        4.89338088       8.46612743      16.16843756       10      -0.00364526      -0.00482627      -0.01120042
C        6.10540671       9.16503108      16.16843756       10      -0.00691906      -0.00132748       0.00907574
