132
Lattice="12.12 0.0 0.0 -6.06 10.496227893867395 0.0 0.0 0.0 40.0" Properties=species:S:1:pos:R:3:tags:I:1:forces:R:3 energy=-1208.996460458704 stress="0.002827984774923606 2.7786047049726315e-06 -2.742267754982328e-06 2.7786047049726315e-06 0.0028319807614675383 3.889960353601735e-06 -2.742267754982328e-06 3.889960353601735e-06 0.002020078133770484" pbc="T T F"
C       -0.00069251       0.00453514      10.00271241        2      -0.00043518       0.00017653       0.00050268
Ti      -0.00057935       1.75329765       8.71314625        0      -0.00107072       0.00114451       0.00248134
Ti       1.51369755       0.87924497      11.29086470        0      -0.00007101       0.00009713       0.00150537
O        0.00087261       1.75344263      12.23008024        3       0.00035646       0.00018110       0.05663176
O        1.51314540       0.87941767       7.77162079        1       0.00046613      -0.00008107       0.00046170
C       -1.51591915       2.62832905      10.00563093        2      -0.00044506       0.00050250       0.00106473
Ti      -1.51590639       4.37816056       8.71218000        0      -0.00034374      -0.00003372       0.00376818
Ti      -0.00408869       3.50309801      11.29947915        0       0.00179399       0.00086605       0.00372781
O       -1.51659298       4.37929812      12.23008024        3      -0.00029238       0.00081981       0.06155893
O       -0.00179113       3.50289494       7.77341590        1       0.00007446       0.00034915       0.00325621
C       -3.03136684       5.25359549      10.00246354        2      -0.00004698       0.00084431       0.00055164
Ti      -3.03124217       7.00224990       8.71061302        0      -0.00036312      -0.00053921       0.00057206
Ti      -1.51671376       6.12760987      11.29192083        0      -0.00013332       0.00126294       0.00255695
O       -3.03222493       7.00299716      12.23008024        3      -0.00056811       0.00162924       0.08569994
O       -1.51604833       6.12645798       7.77190595        1      -0.00011504       0.00100077       0.00128861
C       -4.54612340       7.87695541      10.00113824        2      -0.00066630       0.00016729      -0.00113665
Ti      -4.54611371       9.62588030       8.71061197        0      -0.00090050       0.00050164      -0.00039805
Ti      -3.03127837       8.75161374      11.29131558        0      -0.00017131       0.00047755      -0.00034490
O       -4.54616730       9.62559938      12.23008024        3       0.00047143      -0.00008336       0.07545605
O       -3.03132601       8.75133735       7.77075785        1      -0.00015674       0.00028831      -0.00006352
C        3.02918733       0.00428032      10.00105767        2      -0.00050024       0.00051199      -0.00138102
Ti       3.02886085       1.75365031       8.71068253        0      -0.00082387       0.00121318      -0.00057504
Ti       4.54408313       0.87944247      11.29161301        0      -0.00039044       0.00015964      -0.00075860
O        3.02913192       1.75429550      12.23008024        3       0.00079813       0.00001576       0.08479761
O        4.54386201       0.87931962       7.77094149        1      -0.00044576      -0.00052211      -0.00059904
C        1.51396657       2.62807720      10.00222183        2       0.00028364       0.00062720       0.00047939
Ti       1.51355793       4.37746698       8.71211129        0      -0.00079813       0.00031545       0.00067995
Ti       3.02817928       3.50298033      11.29160915        0       0.00041241       0.00031299       0.00025353
O        1.51580874       4.37859971      12.23008024        3       0.00168854       0.00104945       0.09031108
O        3.02854000       3.50327767       7.77168853        1      -0.00074986       0.00030037      -0.00026679
C       -0.00144695       5.25259854      10.00293426        2       0.00034473       0.00100135       0.00090646
Ti      -0.00126719       7.00198647       8.71120874        0       0.00012288      -0.00050389       0.00034521
Ti       1.51334135       6.12725466      11.29186065        0       0.00051043       0.00088551      -0.00017998
O       -0.00066621       7.00279837      12.23008024        3       0.00047041       0.00130828       0.11040605
O        1.51360450       6.12692826       7.77207607        1      -0.00048400       0.00027512       0.00009162
C       -1.51633524       7.87738011      10.00114919        2      -0.00002682       0.00031877      -0.00049073
Ti      -1.51620198       9.62596146       8.71067633        0       0.00004247       0.00014617      -0.00188039
Ti      -0.00105240       8.75177203      11.29132077        0      -0.00087324       0.00060612       0.00021836
O       -1.51643445       9.62650836      12.23008024        3      -0.00061467       0.00060154       0.09173577
O       -0.00063549       8.75113520       7.77146846        1      -0.00120050       0.00098296      -0.00008351
C        6.05788453       0.00425492      10.00134793        2      -0.00001942       0.00027407      -0.00111988
Ti       6.05857697       1.75348882       8.71090541        0       0.00035214       0.00113524      -0.00075836
Ti       7.57372100       0.88043094      11.29285210        0      -0.00238389      -0.00096289       0.00143740
O        6.05837030       1.75462882      12.23008024        3      -0.00188862      -0.00031523       0.09289288
O        7.57470657       0.87926182       7.77256727        1      -0.00102050       0.00048799       0.00033636
C        4.54362367       2.62827875      10.00119407        2      -0.00050468       0.00072280      -0.00166887
Ti       4.54371570       4.37775322       8.71103586        0       0.00048615       0.00007521      -0.00172931
Ti       6.05830180       3.50315315      11.29035794        0      -0.00018370      -0.00031979      -0.00008349
O        4.54279132       4.37823177      12.23008024        3      -0.00007390       0.00033209       0.09052467
O        6.05898339       3.50330959       7.77174773        1       0.00043980       0.00035134       0.00002102
C        3.02846264       5.25254206      10.00161522        2       0.00064941       0.00074492      -0.00054766
Ti       3.02870699       7.00199513       8.71139046        0      -0.00034168       0.00091454      -0.00149164
Ti       4.54360463       6.12743036      11.29220251        0       0.00032193       0.00027119       0.00038905
O        3.02917624       7.00227658      12.23008024        3       0.00106398       0.00032023       0.09548303
O        4.54376613       6.12721626       7.77176250        1      -0.00027732       0.00056416      -0.00050769
C        1.51361967       7.87681615      10.00178445        2       0.00013862       0.00019446      -0.00104375
Ti       1.51370018       9.62593927       8.71157767        0       0.00058302       0.00076902      -0.00046304
Ti       3.02860944       8.75235273      11.29248694        0      -0.00057915       0.00024642      -0.00021943
O        1.51349194       9.62560492      12.23008024        3      -0.00098055      -0.00014938       0.08554778
O        3.02898683       8.75173704       7.77251347        1      -0.00014275       0.00085060      -0.00017789
C        9.08894874       0.00513433      10.00386865        2      -0.00072827       0.00020339       0.00016967
Ti       9.08877372       1.75339519       8.71321825        0      -0.00001247       0.00104426       0.00296658
Ti      10.60248558       0.88217735      11.30161245        0       0.00035600      -0.00169117       0.00293737
O        9.08642302       1.75542653      12.23008024        3      -0.00127571       0.00074970       0.08072234
O       10.60363226       0.87955989       7.77392709        1       0.00027799       0.00056864       0.00263801
C        7.57320752       2.62848767      10.00244073        2      -0.00068876       0.00004380      -0.00004404
Ti       7.57374737       4.37787719       8.71162232        0      -0.00017088       0.00041605       0.00103528
Ti       9.08965815       3.50394982      11.29597564        0      -0.00133723       0.00086725       0.00427957
O        7.57263989       4.37831645      12.23008024        3      -0.00193878       0.00058171       0.10433995
O        9.08929394       3.50287887       7.77355514        1      -0.00020857       0.00048248       0.00270734
C        6.05887589       5.25265952      10.00182775        2      -0.00067303       0.00051253      -0.00099369
Ti       6.05882715       7.00201857       8.71118172        0       0.00022146       0.00015884      -0.00134427
Ti       7.57391786       6.12785987      11.29142018        0       0.00019866      -0.00025740       0.00006937
O        6.05793526       7.00252746      12.23008024        3      -0.00017305       0.00030229       0.08599434
O        7.57370926       6.12701414       7.77162390        1       0.00035516       0.00006209       0.00040156
C        4.54372252       7.87698179      10.00170680        2      -0.00000897      -0.00014424      -0.00083599
Ti       4.54402135       9.62631890       8.71271958        0      -0.00039562       0.00085472      -0.00001874
Ti       6.05860329       8.75219627      11.29154499        0      -0.00041192       0.00003606       0.00046953
O        4.54376024       9.62414437      12.23008024        3      -0.00057327      -0.00098643       0.09146788
O        6.05842918       8.75152718       7.77182967        1      -0.00038938       0.00124153       0.00001440
C        0.06953120       0.04970954      17.56204378       10       0.00123847      -0.00022665      -0.02706637
C        1.27880786       0.75160028      17.57043201       10       0.00000696       0.00055104      -0.00111338
C       -1.12578468       2.13983296      17.53767311       10      -0.00149331      -0.00112556       0.51308273
C        0.06635280       2.84939378      17.54531185       10      -0.00151293      -0.00101745       0.01094065
C       -2.36154280       4.27645036      17.53766756       10      -0.00099772      -0.00065485       0.23983773
C       -1.14999682       4.95442409      17.54530929       10      -0.00069380      -0.00177479       0.02803399
C       -3.57299869       6.35806052      17.56204323       10       0.00170692      -0.00151980       0.00849143
C       -2.36032742       7.05427404      17.57043181       10       0.00061854      -0.00037454       0.01003158
C       -4.78377919       8.45099238      17.56015084       10       0.00029704      -0.00195770      -0.01402037
C       -3.57206827       9.15046426      17.57144050       10      -0.00140679      -0.00024159      -0.03054673
C        2.48928746       0.05273251      17.57246552       10       0.00179547       0.00014740      -0.02492649
C        3.69961361       0.75329662      17.57144041       10      -0.00086136      -0.00107950      -0.02172858
C        1.28199404       2.14982729      17.56204399       10       0.00070385       0.00050024      -0.03097368
C        2.48916304       2.85249041      17.55298386       10      -0.00135791      -0.00100411      -0.02934180
C        0.06310003       4.25179822      17.51918397       10       0.00019857      -0.00113761       0.13881627
C        1.27382920       4.95112337      17.53085392       10      -0.00143791      -0.00175388      -0.07495554
C       -1.14803805       6.35698233      17.56204323       10       0.00092491      -0.00054443      -0.00089467
C        0.06398835       7.05229946      17.55298396       10      -0.00112346      -0.00211261      -0.03195451
C       -2.36039504       8.45241554      17.57246573       10       0.00165754       0.00046203      -0.02743166
C       -1.14846883       9.15037512      17.57144050       10      -0.00005600      -0.00120953      -0.02738564
C        4.90989227       0.05274687      17.57246552       10       0.00236408      -0.00045835      -0.02577213
C        6.12072191       0.75169431      17.57043201       10       0.00020014      -0.00056321       0.00120137
C        3.69948137       2.15242960      17.56015071       10       0.00315406       0.00033184      -0.02313274
C        4.90998608       2.85239473      17.55298386       10       0.00058537      -0.00001514      -0.02719220
C        2.48732389       4.25179715      17.53910036       10       0.00106988      -0.00014689      -0.04232310
C        3.69905070       4.95190519      17.53631250       10      -0.00171271      -0.00021049      -0.01594566
C        1.27554448       6.35178090      17.53910026       10      -0.00026573      -0.00016789      -0.03532838
C        2.48739714       7.05155365      17.53631239       10      -0.00027021      -0.00151899      -0.01124394
C        0.06313669       8.45086853      17.56015084       10       0.00218714      -0.00009119      -0.00541357
C        1.27474073       9.14953888      17.55298371       10       0.00199180      -0.00145803      -0.03684886
C        7.33080783       0.05050298      17.56204378       10       0.00031756      -0.00154013      -0.00625540
C        8.54452564       0.75354535      17.54531166       10       0.00118255       0.00072470       0.03214005
C        6.11740402       2.15007494      17.56204399       10       0.00091069      -0.00143008       0.01729288
C        7.33255247       2.85009732      17.54531185       10       0.00194263      -0.00103013       0.00656832
C        4.91112488       4.25192582      17.53910036       10      -0.00032231       0.00034382      -0.03351090
C        6.12473664       4.95131599      17.53085392       10      -0.00006610       0.00012866      -0.04583459
C        3.69942614       6.35165853      17.53323450       10       0.00017563      -0.00060551      -0.04979566
C        4.91148690       7.05172148      17.53631239       10       0.00047756       0.00028844      -0.01244408
C        2.48742989       8.45098514      17.53910009       10       0.00057921      -0.00058684      -0.04043046
C        3.69961524       9.15276018      17.53085351       10       0.00091659       0.00040013      -0.07186125
C        9.75985192       0.05469784      17.51918392       10      -0.00007837      -0.00018909       0.13265134
C       10.97594760       0.75291853      17.54531166       10       0.00052415      -0.00006993       0.02046116
C        8.52559030       2.14130550      17.53767311       10       0.00042064      -0.00165858       0.26440777
C        9.75779854       2.85284195      17.29331385       10      -0.00003689      -0.00039161      -2.00631714
C        7.33552100       4.25238213      17.51918397       10      -0.00195285      -0.00175066       0.14120420
C        8.54849288       4.95572294      17.54530929       10      -0.00055343      -0.00187134       0.00438315
C        6.12366704       6.35195783      17.53910026       10       0.00113567      -0.00062253      -0.04485064
C        7.33516320       7.05263016      17.55298396       10       0.00247522      -0.00138663      -0.02417621
C        4.91190470       8.45110720      17.53910009       10      -0.00026529       0.00002687      -0.04458886
C        6.12479140       9.14915051      17.55298371       10      -0.00026322      -0.00044297      -0.03084786
O        9.83841386       2.81428493      15.71013304       11      -0.00170828       0.00414119      -0.00217651
H        9.01916848       3.18583397      15.33813161       12       0.00346645      -0.00283592       0.00213651
