130
Lattice="12.12 0.0 0.0 -6.06 10.496227893867395 0.0 0.0 0.0 40.0" Properties=species:S:1:pos:R:3:tags:I:1:forces:R:3 energy=-1199.5006870051266 stress="0.0026511280274789106 2.1075617491132686e-07 -2.8931776544970545e-07 2.1075617491132686e-07 0.0026507268929571995 -3.5596793413938647e-07 -2.8931776544970545e-07 -3.5596793413938647e-07 0.0030099739589878045" pbc="T T F"
C        0.00000521      -0.00003017      10.00266575        2      -0.00007968      -0.00001140      -0.00082183
Ti       0.00002734       1.74939809       8.70985206        0       0.00001204      -0.00008460       0.00007628
Ti       1.51466032       0.87437508      11.28665412        0      -0.00006616       0.00001674       0.00200992
O       -0.00016831       1.74883625      12.23008024        3      -0.00028719       0.00085865      -0.31793169
O        1.51479969       0.87462402       7.76931607        1      -0.00046644      -0.00031034       0.00085131
C       -1.51510820       2.62398965      10.00187258        2      -0.00027581       0.00030795      -0.00189295
Ti      -1.51495765       4.37341001       8.70895530        0       0.00002455      -0.00020662      -0.00223176
Ti       0.00008439       3.50013735      11.28455261        0      -0.00014251       0.00001696       0.00060831
O       -1.51596802       4.37436113      12.23008024        3      -0.00018666       0.00035561      -0.32433809
O        0.00010003       3.49837715       7.76890120        1      -0.00010694      -0.00124575      -0.00083602
C       -3.03012022       5.24802299      10.00052469        2      -0.00005647      -0.00005890      -0.00306497
Ti      -3.02991108       6.99756107       8.70877409        0      -0.00002852       0.00001799      -0.00242976
Ti      -1.51373094       6.12347577      11.28333192        0      -0.00017391       0.00007252       0.00023096
O       -3.02950514       6.99625490      12.23008024        3       0.00031125      -0.00054678      -0.32967753
O       -1.51490389       6.12276190       7.76843806        1      -0.00064565      -0.00035441      -0.00243501
C       -4.54509003       7.87212262      10.00162455        2       0.00001971      -0.00042831      -0.00214204
Ti      -4.54499919       9.62155702       8.70978777        0      -0.00011421       0.00006571       0.00022308
Ti      -3.02868831       8.74643171      11.28427760        0      -0.00005446      -0.00032825       0.00101093
O       -4.54541982       9.62138663      12.23008024        3       0.00037470      -0.00064198      -0.31562611
O       -3.03024018       8.74714524       7.76876370        1      -0.00095453       0.00059315      -0.00077304
C        3.02985900       0.00012015      10.00210586        2       0.00020665      -0.00005018      -0.00161669
Ti       3.02996745       1.74933348       8.70987415        0      -0.00005432       0.00001485      -0.00051176
Ti       4.54537687       0.87318420      11.28608116        0       0.00041288      -0.00011497       0.00109046
O        3.03165826       1.75043645      12.23008024        3       0.00052598       0.00018947      -0.30252915
O        4.54460015       0.87459842       7.76878137        1      -0.00056294       0.00004491      -0.00121874
C        1.51505241       2.62389676      10.00218843        2       0.00021984       0.00032995      -0.00141710
Ti       1.51505441       4.37337540       8.70914100        0       0.00003063      -0.00030732      -0.00240609
Ti       3.02921930       3.49957723      11.28617109        0       0.00051595       0.00039463       0.00095302
O        1.51560938       4.37432328      12.23008024        3       0.00017540       0.00067574      -0.32269642
O        3.02967480       3.49844952       7.76882531        1      -0.00019648      -0.00081945      -0.00140031
C       -0.00005408       5.24774802      10.00109237        2      -0.00002980       0.00021520      -0.00295110
Ti      -0.00001507       6.99749080       8.70822675        0      -0.00001773      -0.00011710      -0.00381583
Ti       1.51380859       6.12362497      11.28276099        0      -0.00017817       0.00022086      -0.00031784
O        0.00028883       6.99809129      12.23008024        3       0.00013713      -0.00046895      -0.35680855
O        1.51495870       6.12267849       7.76850099        1       0.00030323      -0.00042459      -0.00269662
C       -1.51526365       7.87222238      10.00089808        2       0.00016513      -0.00025706      -0.00297833
Ti      -1.51496899       9.62160990       8.70897221        0      -0.00016027       0.00004475      -0.00222952
Ti       0.00018735       8.74529243      11.28260565        0      -0.00008701      -0.00013378      -0.00025638
O       -1.51389062       9.62118774      12.23008024        3       0.00057029      -0.00041408      -0.32843809
O       -0.00004027       8.74686020       7.76842182        1      -0.00020282       0.00062698      -0.00251030
C        6.05998268       0.00017560      10.00081790        2       0.00005251      -0.00026743      -0.00282824
Ti       6.05996860       1.74909865       8.70841535        0       0.00000709      -0.00003923      -0.00274788
Ti       7.57471904       0.87303804      11.28568530        0      -0.00034052      -0.00010661       0.00117588
O        6.06064449       1.75060779      12.23008024        3      -0.00029050      -0.00017275      -0.31831521
O        7.57525212       0.87455026       7.76864497        1       0.00051158       0.00018180      -0.00163104
C        4.54510312       2.62409442      10.00093202        2       0.00032274       0.00023735      -0.00252343
Ti       4.54478586       4.37349527       8.70824702        0      -0.00003528      -0.00006487      -0.00330375
Ti       6.05992765       3.49856344      11.28336384        0       0.00022795      -0.00011888      -0.00140948
O        4.54687229       4.37357247      12.23008024        3      -0.00032768       0.00011270      -0.31787342
O        6.05989134       3.49865041       7.76833954        1       0.00007691      -0.00022337      -0.00292777
C        3.03010895       5.24799082      10.00077430        2       0.00004623      -0.00000484      -0.00282452
Ti       3.02991795       6.99751388       8.70878812        0       0.00002852       0.00002010      -0.00302301
Ti       4.54350872       6.12333745      11.28514136        0      -0.00011116      -0.00005973       0.00000530
O        3.02915307       6.99653215      12.23008024        3      -0.00033140      -0.00038888      -0.33461304
O        4.54494270       6.12303892       7.76858125        1       0.00044427       0.00035140      -0.00208888
C        1.51518097       7.87222306      10.00082396        2      -0.00033383      -0.00031496      -0.00331248
Ti       1.51497072       9.62154219       8.70883636        0       0.00011551      -0.00000636      -0.00252853
Ti       3.02900595       8.74638345      11.28393378        0      -0.00015798      -0.00020247       0.00060649
O        1.51376728       9.62098500      12.23008024        3      -0.00024652      -0.00035460      -0.33490269
O        3.03025053       8.74702608       7.76874760        1       0.00098293       0.00072013      -0.00132836
C        9.09017501       0.00011295      10.00176207        2      -0.00038358      -0.00002629      -0.00220260
Ti       9.09002409       1.74930658       8.70934464        0      -0.00007147       0.00001833      -0.00075647
Ti      10.60474789       0.87440850      11.28618310        0      -0.00036977       0.00003367       0.00208126
O        9.08820895       1.75057130      12.23008024        3      -0.00067758       0.00019094      -0.30564744
O       10.60534924       0.87459636       7.76915089        1       0.00046927      -0.00020144       0.00047870
C        7.57495311       2.62410149      10.00052592        2      -0.00042233       0.00019937      -0.00290029
Ti       7.57511072       4.37348671       8.70776435        0       0.00002797      -0.00004936      -0.00331902
Ti       9.09061201       3.49943581      11.28516429        0      -0.00065098       0.00014486       0.00111017
O        7.57326665       4.37303918      12.23008024        3      -0.00004272       0.00012899      -0.32018829
O        9.09033142       3.49850885       7.76853717        1       0.00015152      -0.00063956      -0.00173311
C        6.06001704       5.24806399      10.00029679        2      -0.00006241      -0.00036337      -0.00311075
Ti       6.05997224       6.99751662       8.70910931        0      -0.00003836      -0.00000665      -0.00150636
Ti       7.57617392       6.12320348      11.28478482        0      -0.00021646      -0.00040917       0.00050444
O        6.06004855       6.99522797      12.23008024        3      -0.00001685      -0.00056818      -0.30848475
O        7.57500113       6.12312293       7.76844407        1      -0.00022909       0.00036921      -0.00196330
C        4.54516815       7.87220701      10.00158395        2      -0.00022668      -0.00048381      -0.00227247
Ti       4.54507432       9.62156571       8.70966172        0       0.00009504       0.00008496      -0.00005993
Ti       6.05976300       8.74646755      11.28636162        0      -0.00022055      -0.00031685       0.00226398
O        4.54513092       9.62142187      12.23008024        3      -0.00095215      -0.00057952      -0.31510940
O        6.06005571       8.74724396       7.76906639        1       0.00008969       0.00066462       0.00041986
C        0.04502314       0.06754956      15.17218550       10       0.00772206       0.00515547       0.11054705
C        1.25699390       0.76730935      15.17218550       10      -0.00581867       0.00090184       0.05166176
C       -1.16688856       2.16691002      15.17218550       10      -0.00340055       0.00595755       0.11006745
C        0.04501834       2.86654622      15.17218550       10       0.00035033       0.00270124       0.08363952
C       -2.37890346       4.26640304      15.17218550       10      -0.00422031       0.00205791       0.11528281
C       -1.16726941       4.96583481      15.17218550       10       0.00102463       0.00085395       0.15132711
C       -3.59075866       6.36526044      15.17218550       10      -0.00421218       0.00389947       0.11615993
C       -2.37932370       7.06502279      15.17218550       10       0.00278483      -0.00281831       0.15365218
C       -4.80293272       8.46444214      15.17218550       10       0.00667102       0.00314276       0.11132889
C       -3.59107516       9.16433899      15.17218550       10      -0.00447659      -0.00025575       0.09146985
C        2.46915662       0.06752217      15.17218550       10       0.00007342      -0.00379958       0.10631023
C        3.68101170       0.76748513      15.17218550       10       0.00507374       0.00481659       0.08269337
C        1.25702066       2.16698575      15.17218550       10       0.00133235      -0.00034625       0.10730436
C        2.46924342       2.86655190      15.17218550       10       0.00205976       0.00036124       0.07603689
C        0.04498743       4.26675504      15.17218550       10       0.00268687      -0.00082647       0.06533711
C        1.25718965       4.96594644      15.17218550       10      -0.00026850      -0.00214344       0.15561008
C       -1.16695510       6.36557184      15.17218550       10       0.00483873       0.00215061       0.03946919
C        0.04485686       7.06515781      15.17218550       10       0.00053282      -0.00230175       0.16099065
C       -2.37854588       8.46439636      15.17218550       10       0.00165071      -0.00086939       0.06061464
C       -1.16694502       9.16445770      15.17218550       10       0.00162219       0.00599404       0.16126770
C        4.89333906       0.06739228      15.17218550       10      -0.00130978      -0.00624314       0.09305118
C        6.10512852       0.76768966      15.17218550       10       0.00138322       0.00320468       0.12967289
C        3.68133712       2.16691643      15.17218550       10      -0.00267088       0.00046975       0.15123532
C        4.89341439       2.86671122      15.17218550       10      -0.00020147      -0.00065247       0.07902513
C        2.46896234       4.26653613      15.17218550       10      -0.00092405       0.00054573       0.10129225
C        3.68144477       4.96572513      15.17218550       10       0.00110999      -0.00041387       0.12136169
C        1.25671148       6.36570031      15.17218550       10       0.00044440       0.00086438       0.03278784
C        2.46911464       7.06505197      15.17218550       10       0.00275939      -0.00046049       0.15963501
C        0.04508806       8.46435371      15.17218550       10      -0.00129382      -0.00297758       0.02723740
C        1.25702213       9.16445529      15.17218550       10       0.00136677       0.00632371       0.16249719
C        7.31693666       0.06736584      15.17218550       10      -0.00168451      -0.00595415       0.09244754
C        8.52911251       0.76753842      15.17218550       10      -0.00157760       0.00111770       0.08976947
C        6.10510630       2.16668441      15.17218550       10      -0.00032091       0.00238513       0.16128600
C        7.31673252       2.86680984      15.17218550       10      -0.00453689      -0.00200640       0.07723522
C        4.89302738       4.26597765      15.17218550       10       0.00044535       0.00232413       0.16066967
C        6.10505333       4.96519274      15.17218550       10      -0.00237637       0.00101756       0.07492440
C        3.68070268       6.36539170      15.17218550       10      -0.00192031      -0.00005791       0.10192459
C        4.89324875       7.06487176      15.17218550       10      -0.00107793       0.00060943       0.08993521
C        2.46865157       8.46443066      15.17218550       10      -0.00492758      -0.00463619       0.05320789
C        3.68121618       9.16433882      15.17218550       10       0.00021139       0.00407967       0.10158261
C        9.74090786       0.06746210      15.17218550       10       0.00416385       0.00036115       0.10656575
C       10.95323609       0.76737637      15.17218550       10      -0.00650997      -0.00287404       0.05133062
C        8.52879096       2.16685302      15.17218550       10      -0.00254691       0.00307209       0.15479498
C        9.74074335       2.86655396      15.17218550       10       0.00464841      -0.00368919       0.07562423
C        7.31693159       4.26597789      15.17218550       10      -0.00063029      -0.00065990       0.15818469
C        8.52854406       4.96566168      15.17218550       10       0.00461912      -0.00180329       0.11369827
C        6.10490306       6.36491758      15.17218550       10      -0.00019063      -0.00248995       0.15945717
C        7.31664930       7.06487031      15.17218550       10       0.00363746      -0.00564099       0.08205280
C        4.89282076       8.46447336      15.17218550       10       0.00575622      -0.00083312       0.10925887
C        6.10513162       9.16437463      15.17218550       10      -0.00764290      -0.00484125       0.05021852
