131
Lattice="12.12 0.0 0.0 -6.06 10.496227893867395 0.0 0.0 0.0 40.0" Properties=species:S:1:pos:R:3:tags:I:1:forces:R:3 energy=-1204.3319345148202 stress="0.0028800990987489002 9.926607274454616e-08 8.813600071229985e-07 9.926607274454616e-08 0.0028799692798623846 2.4613648296822538e-08 8.813600071229985e-07 2.4613648296822538e-08 0.0020327724425694763" pbc="T T F"
C       -0.00018890       0.00015643      10.00261312        2       0.00040507      -0.00016237      -0.00082142
Ti       0.00036693       1.74917014       8.71111418        0       0.00033412       0.00013790       0.00038199
Ti       1.51560222       0.87554283      11.29359403        0       0.00025651      -0.00072012       0.00035061
O       -0.00109271       1.75034403      12.23008024        3       0.00038372       0.00009768       0.08838685
O        1.51594555       0.87294772       7.77437864        1      -0.00032070       0.00107819      -0.00073084
C       -1.51503823       2.62393918      10.00131726        2       0.00022312       0.00014338       0.00002825
Ti      -1.51494822       4.37396895       8.71237310        0       0.00026362       0.00008157       0.00021317
Ti       0.00035354       3.49884607      11.29138825        0       0.00026333       0.00023948      -0.00027694
O       -1.51461072       4.36962268      12.23008024        3       0.00027763       0.00004538       0.10119365
O       -0.00054180       3.49896365       7.77177183        1       0.00045183      -0.00005020       0.00054223
C       -3.02991791       5.24758623      10.00456935        2       0.00016514       0.00041928      -0.00123008
Ti      -3.03010323       6.99784453       8.71923512        0       0.00016882      -0.00008788      -0.00356278
Ti      -1.51449536       6.12344931      11.30058780        0      -0.00054615       0.00077169       0.00049070
O       -3.03138986       6.99215405      12.23008024        3      -0.00003162       0.00001922       0.07015744
O       -1.51583980       6.12470060       7.77677113        1       0.00075708      -0.00100114      -0.00153527
C       -4.54491515       7.87204045      10.00867418        2       0.00060496       0.00022019      -0.00264580
Ti      -4.54438941       9.62118104       8.71744790        0       0.00006753       0.00000986      -0.00290237
Ti      -3.02838771       8.74627868      11.32190245        0       0.00013056      -0.00002989      -0.00148604
O       -4.55020030       9.62452491      12.23008024        3      -0.00011426       0.00001964       0.10879703
O       -3.02917829       8.74651270       7.78079599        1      -0.00015206       0.00010928      -0.00458760
C        3.03020173       0.00003976      10.00894652        2       0.00015378      -0.00058100      -0.00267449
Ti       3.03013019       1.74948051       8.71277112        0       0.00017285      -0.00048537       0.00048038
Ti       4.54475892       0.87528052      11.29591950        0      -0.00001493      -0.00103457       0.00043965
O        3.02948175       1.75277289      12.23008024        3       0.00013766      -0.00044948       0.09932048
O        4.54457408       0.87234976       7.77545485        1       0.00046023       0.00132450      -0.00116769
C        1.51491511       2.62450596      10.00143569        2       0.00057775      -0.00003122       0.00010462
Ti       1.51491935       4.37340282       8.71088670        0       0.00024399       0.00018970      -0.00036956
Ti       3.03009036       3.49942957      11.29114564        0       0.00024217      -0.00015212      -0.00017053
O        1.51527358       4.37273060      12.23008024        3       0.00009606       0.00004343       0.08435094
O        3.02984009       3.49757506       7.77158483        1       0.00014619       0.00076394       0.00044781
C        0.00053018       5.24760512      10.00311171        2       0.00014525       0.00046703      -0.00034965
Ti       0.00025446       6.99739339       8.71522041        0      -0.00022940       0.00019505      -0.00024487
Ti       1.51615153       6.12224155      11.29151737        0      -0.00020879       0.00019925      -0.00005794
O        0.00391893       6.99516526      12.23008024        3      -0.00028181       0.00023679       0.10719738
O        1.51332733       6.12379045       7.77264440        1       0.00102632      -0.00052456       0.00023173
C       -1.51511832       7.87233860      10.01197736        2      -0.00034025       0.00027988      -0.00311060
Ti      -1.51530340       9.62147369       8.71949948        0       0.00021664      -0.00000278      -0.00379261
Ti      -0.00030974       8.74632797      11.30139901        0      -0.00095737       0.00023414       0.00043932
O       -1.51117842       9.62534240      12.23008024        3      -0.00007495       0.00004404       0.07176375
O       -0.00205786       8.74676981       7.77695526        1       0.00132927      -0.00010164      -0.00166793
C        6.06054873       0.00026835      10.00491845        2      -0.00025544      -0.00029456      -0.00139997
Ti       6.05977892       1.74923334       8.71188386        0      -0.00014745       0.00003144       0.00042189
Ti       7.57509172       0.87478811      11.29198270        0      -0.00002160      -0.00016241      -0.00014499
O        6.06166328       1.75124254      12.23008024        3      -0.00022123      -0.00010029       0.10650273
O        7.57441788       0.87413430       7.77220188        1       0.00037320       0.00025552       0.00023879
C        4.54521936       2.62511052      10.00165140        2      -0.00015815      -0.00006105       0.00001222
Ti       4.54512967       4.37336185       8.71058495        0       0.00002817       0.00004783      -0.00103416
Ti       6.05961616       3.49903398      11.29119170        0      -0.00004500       0.00004805      -0.00038205
O        4.54469356       4.37364521      12.23008024        3       0.00015264       0.00001748       0.10461384
O        6.06063115       3.49834198       7.77159900        1      -0.00015502       0.00020492       0.00057210
C        3.03026459       5.24801566      10.00070790        2       0.00015631      -0.00000662       0.00057240
Ti       3.03001023       6.99758211       8.71086027        0       0.00000966      -0.00018389      -0.00037189
Ti       4.54455189       6.12248093      11.29109197        0       0.00025526      -0.00004105      -0.00008317
O        3.03093653       6.99763733      12.23008024        3      -0.00000521       0.00003376       0.09616608
O        4.54588830       6.12351741       7.77148377        1      -0.00047536      -0.00036765       0.00052256
C        1.51580311       7.87199849      10.00322821        2      -0.00028799      -0.00021896      -0.00037484
Ti       1.51461595       9.62124447       8.71255592        0       0.00011477      -0.00018853       0.00015483
Ti       3.03019795       8.74650430      11.29134490        0      -0.00011937      -0.00019171      -0.00024484
O        1.51886376       9.62317748      12.23008024        3       0.00007153      -0.00013203       0.11150187
O        3.02949947       8.74726421       7.77179436        1       0.00039079      -0.00029664       0.00057357
C        9.09014597       0.00009741      10.00131825        2       0.00000880      -0.00019291      -0.00001857
Ti       9.09001386       1.74936799       8.71073988        0       0.00007354       0.00001307      -0.00061065
Ti      10.60524442       0.87452097      11.29187302        0       0.00007807       0.00004011      -0.00015801
O        9.09047068       1.74900926      12.23008024        3       0.00004001      -0.00003227       0.09389984
O       10.60529363       0.87454932       7.77133217        1      -0.00002494       0.00004519       0.00036724
C        7.57508106       2.62408841      10.00148269        2      -0.00017684       0.00015339       0.00014794
Ti       7.57504331       4.37374644       8.71176836        0      -0.00007884       0.00019790       0.00048477
Ti       9.08992574       3.49863166      11.29185978        0       0.00020232       0.00017455      -0.00015667
O        7.57438629       4.37147702      12.23008024        3      -0.00001289       0.00031815       0.11740749
O        9.09020284       3.49948587       7.77207439        1      -0.00000215      -0.00031147       0.00029503
C        6.05927493       5.24751577      10.00154014        2      -0.00001206       0.00024468       0.00009211
Ti       6.05998277       6.99735788       8.71255808        0       0.00060827       0.00018545       0.00054595
Ti       7.57441015       6.12295383      11.29533296        0       0.00080304       0.00060697       0.00047940
O        6.05709881       6.99646047      12.23008024        3       0.00046808       0.00027172       0.10134444
O        7.57682408       6.12436658       7.77518838        1      -0.00087198      -0.00097113      -0.00098801
C        4.54464276       7.87202382      10.00134121        2       0.00027395      -0.00036631       0.00011746
Ti       4.54535957       9.62135970       8.71106367        0       0.00008953      -0.00026875       0.00040704
Ti       6.05959395       8.74597016      11.29321855        0       0.00057212       0.00021303       0.00008137
O        4.54389940       9.62189825      12.23008024        3       0.00010205      -0.00035041       0.09359760
O        6.06201430       8.74701624       7.77424789        1      -0.00107660      -0.00023379      -0.00066563
C        0.04120595       0.06987909      17.53138950       10       0.00577934       0.00066864       0.00576463
C        1.25185631       0.76933344      17.51609745       10      -0.00007237      -0.00176776       0.03036254
C       -1.16871117       2.16810901      17.53671020       10      -0.00113832       0.00116646      -0.01775967
C        0.04321663       2.86774509      17.51899977       10      -0.00082165       0.00104195      -0.00159780
C       -2.38055959       4.26523333      17.53138950       10      -0.00392686       0.00090714       0.00133667
C       -1.16955208       4.96392137      17.51609745       10      -0.00099320       0.00079701       0.02300646
C       -3.58778853       6.36781922      17.46827875       10      -0.00293848       0.00079117      -0.03044377
C       -2.38070698       7.04948703      17.42645653       10       0.00052068      -0.00062146      -0.46041486
C       -4.80132343       8.46949566      17.46827875       10       0.00325163      -0.00055808      -0.02449641
C       -3.60744064       9.17405586      17.42645653       10      -0.00060962      -0.00191730      -0.45628053
C        2.46567068       0.06399101      17.46827875       10       0.00272483      -0.00240804      -0.02247845
C        3.67912913       0.76670387      17.43620007       10       0.00348717       0.00195293       0.15846314
C        1.25479661       2.16747433      17.50505448       10       0.00091592      -0.00099604      -0.02254050
C        2.46702294       2.86659429      17.48314007       10      -0.00006776       0.00087213      -0.04941033
C        0.04261826       4.26711003      17.50505448       10       0.00038603      -0.00109973      -0.02776966
C        1.25432507       4.96712704      17.48314007       10      -0.00219375       0.00048162      -0.04869988
C       -1.17364357       6.36776820      17.46827875       10       0.00088772       0.00131508      -0.02353286
C        0.04177222       7.06710978      17.43620007       10      -0.00044669      -0.00126193       0.17289487
C       -2.38117506       8.46573002      16.97365087       10       0.00144365      -0.00232456       0.24351824
C       -1.15441157       9.17377176      17.42645653       10       0.00051262       0.00186285      -0.46820237
C        4.89245041       0.06380209      17.46827875       10      -0.00030401      -0.00316795      -0.03122432
C        6.10641616       0.76894716      17.51609745       10       0.00065057       0.00156452       0.02416912
C        3.67948840       2.16397950      17.46853378       10      -0.00195328       0.00179202      -0.09517141
C        4.89197769       2.86642369      17.48314007       10      -0.00089919       0.00049617      -0.03585047
C        2.46683537       4.26670972      17.48045846       10      -0.00200724       0.00017463      -0.01184142
C        3.67961628       4.96686134      17.47545769       10      -0.00098386       0.00138235      -0.04110988
C        1.25195117       6.36840963      17.46853378       10       0.00046453      -0.00021960      -0.08470713
C        2.46660634       7.06711109      17.48314007       10       0.00074962       0.00123717      -0.04977439
C        0.03954135       8.46937522      17.46827875       10      -0.00034404      -0.00184771      -0.02242068
C        1.25739508       9.16771702      17.51609745       10      -0.00004939       0.00399942       0.02295868
C        7.31700329       0.06966648      17.53138950       10      -0.00124295      -0.00165482      -0.00139288
C        8.52827977       0.76904105      17.53832802       10      -0.00005551       0.00105409      -0.01262023
C        6.10400022       2.16714652      17.50505448       10      -0.00109810       0.00298070      -0.02852959
C        7.31556746       2.86757759      17.51899977       10      -0.00184469      -0.00085873       0.00231181
C        4.89243465       4.26661491      17.48045846       10      -0.00097263       0.00128905      -0.00775497
C        6.10480671       4.96709131      17.48314007       10      -0.00209704       0.00111507      -0.03606157
C        3.67949776       6.36727827      17.48045846       10      -0.00164901      -0.00044950      -0.01041714
C        4.89212834       7.06713980      17.48314007       10      -0.00066395       0.00136106      -0.05001521
C        2.46702095       8.46643957      17.50505448       10      -0.00245774      -0.00152380      -0.02508789
C        3.67917570       9.16548504      17.51899977       10       0.00039323       0.00252234      -0.00640068
C        9.73904981       0.06863715      17.53671020       10       0.00201349      -0.00032713      -0.02046279
C       10.94990247       0.76924004      17.53832802       10      -0.00071106      -0.00184574      -0.01138853
C        8.52729859       2.16795540      17.53671020       10      -0.00257233       0.00208833      -0.02926401
C        9.73928336       2.86653373      17.53832802       10       0.00266270      -0.00129880      -0.01296514
C        7.31639219       4.26703260      17.50505448       10      -0.00222786       0.00014368      -0.02160478
C        8.52845803       4.96394068      17.51609745       10       0.00254429      -0.00072445       0.02884422
C        6.10684713       6.36839659      17.46853378       10      -0.00136232      -0.00254111      -0.10041192
C        7.31682172       7.06724506      17.43620007       10       0.00040301      -0.00218616       0.15917742
C        4.89147342       8.46645200      17.50505448       10       0.00160553      -0.00073860      -0.02732255
C        6.10092622       9.16801110      17.51609745       10      -0.00207063      -0.00248961       0.03050923
O       -2.38270840       8.46312975      15.62084024       11       0.00222608      -0.00031591      -0.00231044
