132
Lattice="12.12 0.0 0.0 -6.06 10.496227893867395 0.0 0.0 0.0 40.0" Properties=species:S:1:pos:R:3:tags:I:1:forces:R:3 energy=-1210.0022084095929 stress="0.002822553992004119 -1.6777418041656194e-06 4.306631438869862e-06 -1.6777418041656194e-06 0.00281702532283031 -3.740835222629513e-06 4.306631438869862e-06 -3.740835222629513e-06 0.0022174928179685646" pbc="T T F"
C        0.00631208      -0.00173130       9.99760270        2       0.00003321      -0.00081880      -0.00020403
Ti       0.00378302       1.74913986       8.69059267        0       0.00164642      -0.00046995       0.00135990
Ti       1.51661226       0.87580625      11.30374550        0       0.00056167      -0.00030911       0.00027568
O        0.00347379       1.74873197      12.23159545        3      -0.00027829      -0.00024735       0.01500214
O        1.51573997       0.87647160       7.76751869        1       0.00147242      -0.00073801       0.00019799
C       -1.51294570       2.62564679      10.01269266        2       0.00108372      -0.00083240      -0.00241229
Ti      -1.51308574       4.37683793       8.69445121        0      -0.00004228      -0.00069377       0.00079971
Ti      -0.00105685       3.49784677      11.31280119        0      -0.00160962       0.00043968       0.00020920
O       -1.51082681       4.37750990      12.23159545        3      -0.00168139      -0.00391372      -0.10763252
O       -0.00050068       3.49978113       7.77350323        1       0.00016724      -0.00031574       0.00015718
C       -3.02775174       5.25107324      10.00654891        2       0.00005689       0.00190333      -0.00069687
Ti      -3.02911724       6.99990559       8.69348670        0       0.00090857       0.00080331       0.00027139
Ti      -1.51250911       6.12199421      11.31087244        0       0.00149138      -0.00345348       0.00172086
O       -3.02787576       6.99837531      12.23159545        3      -0.00019778      -0.00011922       0.01549716
O       -1.51426540       6.12272238       7.77200227        1       0.00079942       0.00019835       0.00123099
C       -4.54352158       7.87368485      10.00179089        2       0.00076966      -0.00106212      -0.00038427
Ti      -4.54329649       9.62144991       8.68885183        0       0.00052904      -0.00033783       0.00082239
Ti      -3.02815843       8.74823562      11.30433205        0      -0.00000548       0.00050362       0.00000613
O       -4.54247395       9.62051443      12.23159545        3       0.00000652       0.00005963       0.02799826
O       -3.02887104       8.74590068       7.76660283        1       0.00074869       0.00015727      -0.00099432
C        3.03131455       0.00039962      10.00092869        2       0.00085286      -0.00033694      -0.00117125
Ti       3.03140168       1.75156402       8.69230293        0      -0.00031078       0.00027350      -0.00046071
Ti       4.54816881       0.87608424      11.30359579        0      -0.00077231      -0.00149640      -0.00075399
O        3.03292802       1.74986413      12.23159545        3       0.00040144      -0.00033785       0.01959733
O        4.54665147       0.87655887       7.76769289        1      -0.00048651      -0.00133528      -0.00246115
C        1.51855876       2.62360763      10.00067032        2       0.00120831      -0.00020162      -0.00021029
Ti       1.51640627       4.37469484       8.69425939        0       0.00065308      -0.00051653       0.00078100
Ti       3.03130993       3.49878774      11.30457613        0       0.00144898      -0.00092671      -0.00033865
O        1.51477707       4.37314073      12.23159545        3       0.00132039       0.00074664       0.01964980
O        3.03107847       3.50082077       7.76946114        1      -0.00036113       0.00095423       0.00012964
C        0.00225857       5.25043223      10.00307946        2       0.00111590      -0.00007815       0.00081191
Ti       0.00161777       6.99903703       8.69313989        0       0.00085729      -0.00063644       0.00060250
Ti       1.51670405       6.12300996      11.30546527        0       0.00007110       0.00085390      -0.00124120
O        0.00245101       7.00006062      12.23159545        3       0.00179468       0.00092358      -0.03979304
O        1.51600069       6.12327908       7.77016025        1       0.00094070      -0.00130038      -0.00136284
C       -1.51351723       7.87441781      10.00116839        2       0.00022031      -0.00084779       0.00011312
Ti      -1.51460401       9.62208617       8.69024932        0       0.00102927      -0.00089072      -0.00170398
Ti       0.00336105       8.74951439      11.30394046        0       0.00025022       0.00041517      -0.00027526
O       -1.51240637       9.62298244      12.23159545        3       0.00031280      -0.00045703      -0.00383888
O        0.00095495       8.74697893       7.76677422        1       0.00082668      -0.00152521      -0.00131448
C        6.05810402      -0.00148457       9.99730247        2       0.00058102      -0.00013340      -0.00075550
Ti       6.05957421       1.74895050       8.69098751        0      -0.00068859      -0.00105209       0.00098984
Ti       7.57875729       0.87753222      11.29732680        0       0.00236365       0.00018770       0.00216785
O        6.06292298       1.74785441      12.23159545        3       0.00084143      -0.00051810      -0.00707681
O        7.57770199       0.87751561       7.77016944        1       0.00047723      -0.00041643       0.00223802
C        4.54634193       2.62428283      10.00176031        2       0.00144836       0.00007225      -0.00021528
Ti       4.54651346       4.37465135       8.69214904        0       0.00033580       0.00108218       0.00090864
Ti       6.06322927       3.49768225      11.30755335        0      -0.00069123      -0.00048163       0.00012726
O        4.54664909       4.37367680      12.23159545        3       0.00072833       0.00029523      -0.02635589
O        6.06334443       3.49975296       7.77192145        1       0.00157821       0.00015540       0.00048087
C        3.03156496       5.24953546      10.00284051        2       0.00046651      -0.00081164      -0.00054216
Ti       3.03100560       6.99864616       8.69187231        0       0.00196507      -0.00037614      -0.00119484
Ti       4.54623036       6.12256057      11.30390702        0       0.00180872       0.00022763       0.00000765
O        3.03116173       6.99981582      12.23159545        3       0.00186373      -0.00100353      -0.00398672
O        4.54595069       6.12351585       7.76919713        1       0.00077000      -0.00028457      -0.00057170
C        1.51646255       7.87418255      10.00123435        2       0.00114984       0.00037437      -0.00154138
Ti       1.51413611       9.62166696       8.68856668        0       0.00028682      -0.00106782       0.00143640
Ti       3.03253079       8.75028687      11.30483024        0      -0.00017307      -0.00081047      -0.00041021
O        1.51574830       9.62397008      12.23159545        3       0.00163301       0.00110814      -0.00160287
O        3.03136238       8.74842366       7.76865746        1       0.00127404      -0.00008272      -0.00014465
C        9.09102139       0.00001580      10.00127189        2       0.00058476       0.00077602       0.00308958
Ti       9.09133450       1.74950349       8.69370486        0       0.00060686       0.00067940       0.00014640
Ti      10.60945797       0.87538247      11.28595343        0       0.00121468      -0.00086686      -0.00095474
O        9.09502036       1.74366420      12.23159545        3       0.00284124       0.00277353       0.05364272
O       10.60602012       0.87807236       7.76963890        1       0.00057789       0.00034131       0.00091800
C        7.57711569       2.62397082      10.00779268        2      -0.00085311      -0.00087951       0.00128931
Ti       7.57599927       4.37558007       8.69490524        0       0.00174888      -0.00117101       0.00054188
Ti       9.09345338       3.50061320      11.30789126        0       0.00122765       0.00211878      -0.00293070
O        7.57427537       4.37574018      12.23159545        3      -0.00014415      -0.00012299      -0.06140279
O        9.09226781       3.49960954       7.77584831        1       0.00112449      -0.00003118      -0.00224895
C        6.06031519       5.24935390      10.00226480        2       0.00087995      -0.00053032       0.00027699
Ti       6.06078155       6.99798502       8.69305798        0      -0.00066838      -0.00045584       0.00190639
Ti       7.57745702       6.12216473      11.31053236        0       0.00002911       0.00097747      -0.00025066
O        6.06105643       6.99867730      12.23159545        3       0.00006500       0.00040497       0.00545858
O        7.57703546       6.12248257       7.77180187        1       0.00047650      -0.00153140       0.00011536
C        4.54632199       7.87362158      10.00113807        2       0.00072522       0.00038521      -0.00073698
Ti       4.54722975       9.62250096       8.68909980        0       0.00115884      -0.00101495       0.00235431
Ti       6.05961327       8.74865491      11.30573362        0       0.00106501      -0.00001261      -0.00049714
O        4.54671565       9.62443156      12.23159545        3      -0.00037438      -0.00096377       0.03879798
O        6.06109638       8.74689657       7.76741841        1      -0.00047049      -0.00021210       0.00079887
C        0.05811300       0.07225609      16.85303268       10      -0.00610544      -0.00193161       0.00350865
C        1.26366992       0.77650420      16.86142091       10      -0.00118725       0.00001571       0.00478279
C       -1.13503239       2.16075419      16.82866201       10      -0.00155755       0.00273976       0.37329360
C        0.05201788       2.87397153      16.83630075       10      -0.00004147       0.00154580       0.03719632
C       -2.37545842       4.31426010      16.82865646       10      -0.00165622       0.00050958       0.59823353
C       -1.16375648       4.98344739      16.83629819       10      -0.00175248       0.00114737       0.00548199
C       -3.58836693       6.38743738      16.85303213       10      -0.00376660       0.00023812       0.00114987
C       -2.37606214       7.08096608      16.86142071       10      -0.00200423      -0.00273948       0.00816126
C       -4.79871534       8.47633925      16.85113974       10      -0.00306060       0.00127173       0.01837831
C       -3.58761453       9.17595008      16.86242940       10       0.00323050       0.00355090       0.00343446
C        2.47487596       0.07685805      16.86345442       10      -0.00068746       0.00111005       0.02994940
C        3.68359713       0.77768491      16.86242931       10      -0.00108560       0.00171675       0.01010209
C        1.26802221       2.17254782      16.85303289       10      -0.00126417      -0.00101655       0.02478201
C        2.47384454       2.87683523      16.84397276       10      -0.00126721       0.00014756       0.01635675
C        0.05190820       4.27903511      16.81017287       10      -0.00374823       0.00123501       0.01025792
C        1.25951354       4.97553965      16.82184282       10      -0.00333562       0.00021263      -0.00730040
C       -1.16329028       6.38706508      16.85303213       10      -0.00049221      -0.00031871      -0.01582765
C        0.04900708       7.07811089      16.84397286       10       0.00060804       0.00081645       0.00547255
C       -2.37583949       8.47942267      16.86345463       10      -0.00178360      -0.00411287       0.02185143
C       -1.16477125       9.17611645      16.86242940       10      -0.00264335      -0.00195617      -0.00517094
C        4.89241766       0.07676004      16.86345442       10      -0.00106148      -0.00138426       0.01976497
C        6.10370732       0.77626861      16.86142091       10       0.00003118       0.00069682       0.02405215
C        3.68336684       2.17625128      16.85113961       10      -0.00041839       0.00079824       0.02128028
C        4.89347384       2.87721473      16.84397276       10       0.00022606      -0.00182272       0.01485600
C        2.47220595       4.27531688      16.83008926       10      -0.00264142       0.00080143       0.00531960
C        3.68422934       4.97674463      16.82730140       10      -0.00048669       0.00050322       0.00592255
C        1.25918275       6.37677499      16.83008916       10       0.00004347      -0.00034589      -0.01069848
C        2.47279045       7.07571183      16.82730129       10      -0.00056308       0.00047288       0.00056135
C        0.04696600       8.47571706      16.85113974       10      -0.00041409       0.00092451      -0.01369559
C        1.25885491       9.17257387      16.84397261       10      -0.00168480       0.00361415       0.01626898
C        7.30944604       0.07143288      16.85303268       10       0.00137230       0.00244992       0.00070428
C        8.52438498       0.77439778      16.83630056       10       0.00118275       0.00183412       0.05281478
C        6.09854045       2.17204183      16.85303289       10       0.00131312       0.00074116      -0.00251667
C        7.31463375       2.87401785      16.83630075       10       0.00052990       0.00366169       0.02901795
C        4.89555165       4.27578536      16.83008926       10      -0.00053893      -0.00263730      -0.00698758
C        6.10906825       4.97637905      16.82184282       10      -0.00011815      -0.00187795      -0.00977454
C        3.68415125       6.37646046      16.82422340       10       0.00106903       0.00195701      -0.00694264
C        4.89620346       7.07610667      16.82730129       10       0.00075470       0.00172489       0.01025404
C        2.47067856       8.47562759      16.83008899       10      -0.00296803       0.00028801       0.01973470
C        3.68436999       9.17555501      16.82184241       10      -0.00263250      -0.00087205      -0.00253886
C        9.74416369       0.07331375      16.81017282       10      -0.00265186      -0.00324306      -0.01762359
C       10.96303301       0.77528880      16.83630056       10       0.00153680       0.00147344       0.04302606
C        8.50074330       2.15965850      16.82866201       10      -0.00072789       0.00153608       0.38289023
C        9.74163500       2.87528551      16.58430275       10      -0.00121978       0.00068139      -1.75252579
C        7.31645193       4.27977984      16.81017287       10       0.00161777       0.00221137      -0.00331180
C        8.53204976       4.98427731      16.83629819       10       0.00207310       0.00032042       0.02504870
C        6.10910383       6.37776699      16.83008916       10      -0.00213997      -0.00157265       0.00798872
C        7.31919065       7.07866785      16.84397286       10      -0.00170783      -0.00076200       0.01260540
C        4.89776162       8.47612382      16.83008899       10      -0.00245232      -0.00040671       0.02762592
C        6.10946145       9.17296670      16.84397261       10       0.00247188       0.00137705       0.01748488
O        9.74272101       2.97307226      15.04638744       11      -0.00261761       0.00058570       0.00063292
H        9.65583828       2.08995688      14.63591265       12      -0.00124421       0.00092692       0.00040995
