130
Lattice="12.12 0.0 0.0 -6.06 10.496227893867395 0.0 0.0 0.0 40.0" Properties=species:S:1:pos:R:3:tags:I:1:forces:R:3 energy=-1201.0036720286823 stress="0.002866275317432989 1.8255984947091517e-09 4.965237123628841e-09 1.8255984947091517e-09 0.002866355696726789 -3.737227141051615e-07 4.965237123628841e-09 -3.737227141051615e-07 0.002146462613140263" pbc="T T F"
C       -0.00002207      -0.00000719      10.00206674        2       0.00000241      -0.00000543       0.00217797
Ti       0.00000350       1.74933150       8.71140253        0      -0.00000120       0.00001757       0.00260011
Ti       1.51512775       0.87475886      11.29182780        0       0.00002426       0.00007925       0.00143741
O        0.00013147       1.74866321      12.23008024        3      -0.00001898       0.00007672       0.09933608
O        1.51497027       0.87467747       7.77168181        1      -0.00007237      -0.00002510       0.00282560
C       -1.51499025       2.62408818      10.00227942        2      -0.00003512      -0.00002778       0.00198143
Ti      -1.51501268       4.37342290       8.71125323        0       0.00000766      -0.00002586       0.00248150
Ti      -0.00001039       3.49882989      11.29176058        0       0.00005950       0.00011758       0.00149833
O       -1.51531460       4.37350582      12.23008024        3      -0.00006314      -0.00005945       0.10792354
O       -0.00001213       3.49867633       7.77166416        1      -0.00000728      -0.00004409       0.00284143
C       -3.03002672       5.24808314      10.00205816        2      -0.00002778      -0.00002918       0.00190969
Ti      -3.03001328       6.99747732       8.71123771        0      -0.00000532      -0.00002050       0.00249709
Ti      -1.51496883       6.12284793      11.29172728        0       0.00003993      -0.00005066       0.00138916
O       -3.03019114       6.99715106      12.23008024        3      -0.00001461      -0.00006411       0.10877624
O       -1.51501213       6.12278311       7.77163485        1      -0.00001650      -0.00001940       0.00279432
C       -4.54499173       7.87217520      10.00226157        2      -0.00001926      -0.00004085       0.00199151
Ti      -4.54503401       9.62156602       8.71137841        0      -0.00000022       0.00001204       0.00258630
Ti      -3.02999030       8.74680565      11.29175715        0       0.00004575      -0.00010004       0.00141944
O       -4.54561738       9.62217205      12.23008024        3       0.00007967      -0.00009795       0.10130605
O       -3.03007295       8.74687374       7.77164388        1      -0.00007628      -0.00002261       0.00279310
C        3.03002083      -0.00005658      10.00219772        2      -0.00002794      -0.00006133       0.00194957
Ti       3.03002410       1.74938181       8.71130040        0       0.00000497      -0.00001447       0.00236959
Ti       4.54507489       0.87460626      11.29178947        0       0.00003146      -0.00006551       0.00134149
O        3.03051355       1.74954904      12.23008024        3       0.00004697      -0.00012848       0.12049598
O        4.54491462       0.87465696       7.77159465        1      -0.00006414      -0.00010696       0.00262291
C        1.51498236       2.62412103      10.00223085        2       0.00001450      -0.00003690       0.00196150
Ti       1.51500652       4.37341976       8.71124767        0      -0.00000114      -0.00000987       0.00240089
Ti       3.03004137       3.49880082      11.29181276        0       0.00010611      -0.00002153       0.00140307
O        1.51526603       4.37356299      12.23008024        3       0.00006073      -0.00000026       0.10830685
O        3.02992303       3.49868663       7.77160483        1      -0.00008989      -0.00003312       0.00265684
C       -0.00000813       5.24804647      10.00213616        2      -0.00001065      -0.00000158       0.00193275
Ti       0.00000293       6.99748681       8.71123132        0       0.00000239      -0.00005240       0.00243495
Ti       1.51499589       6.12286651      11.29171160        0       0.00010061      -0.00003523       0.00141301
O        0.00009368       6.99757695      12.23008024        3       0.00000664      -0.00005905       0.08732995
O        1.51499724       6.12278177       7.77162571        1      -0.00001595      -0.00002573       0.00275616
C       -1.51509223       7.87218871      10.00209916        2       0.00000054      -0.00006499       0.00196949
Ti      -1.51500879       9.62154417       8.71122375        0      -0.00000731      -0.00006542       0.00242469
Ti       0.00002875       8.74680306      11.29170578        0       0.00003627      -0.00012130       0.00135115
O       -1.51483806       9.62156277      12.23008024        3       0.00000898      -0.00011277       0.10627679
O       -0.00000940       8.74685232       7.77161763        1      -0.00002120      -0.00006129       0.00272064
C        6.05999212      -0.00002174      10.00199110        2       0.00000900      -0.00013237       0.00180742
Ti       6.06000146       1.74938162       8.71118072        0      -0.00001593      -0.00007624       0.00213700
Ti       7.57491234       0.87460182      11.29179231        0      -0.00007165      -0.00008542       0.00133670
O        6.06001659       1.74967996      12.23008024        3       0.00000494      -0.00023606       0.10031349
O        7.57507632       0.87466187       7.77159160        1       0.00004662      -0.00008069       0.00260049
C        4.54496357       2.62400803      10.00194881        2       0.00003967      -0.00008426       0.00170272
Ti       4.54502150       4.37341390       8.71119187        0      -0.00002792      -0.00002661       0.00211789
Ti       6.05996311       3.49862971      11.29191238        0      -0.00007863      -0.00018738       0.00124127
O        4.54555209       4.37312320      12.23008024        3       0.00003650      -0.00008863       0.09893648
O        6.05999259       3.49872753       7.77155208        1       0.00001324      -0.00004365       0.00245053
C        3.03001314       5.24808477      10.00202997        2       0.00004403      -0.00002401       0.00177107
Ti       3.03001253       6.99748130       8.71122143        0       0.00000340      -0.00002485       0.00236843
Ti       4.54498383       6.12268865      11.29182058        0       0.00003476      -0.00022113       0.00136182
O        3.03022072       6.99723958      12.23008024        3       0.00011737      -0.00004393       0.10520753
O        4.54501033       6.12286599       7.77159999        1      -0.00000806       0.00000271       0.00261880
C        1.51509100       7.87219406      10.00204699        2       0.00000257      -0.00004425       0.00187298
Ti       1.51500888       9.62154256       8.71121210        0       0.00000914      -0.00007085       0.00237455
Ti       3.02999707       8.74680874      11.29174270        0      -0.00003357      -0.00014615       0.00141035
O        1.51494858       9.62156443      12.23008024        3       0.00003198      -0.00007936       0.10278253
O        3.03006790       8.74688267       7.77162351        1       0.00008025      -0.00000397       0.00272466
C        9.09000858      -0.00003769      10.00218099        2       0.00001751      -0.00003482       0.00193633
Ti       9.08997439       1.74937707       8.71128399        0      -0.00001189      -0.00002671       0.00242617
Ti      10.60489576       0.87471014      11.29181916        0      -0.00004334       0.00003592       0.00144736
O        9.08927760       1.74952799      12.23008024        3       0.00000069      -0.00007682       0.11993607
O       10.60503474       0.87469065       7.77166817        1       0.00006034      -0.00002501       0.00279886
C        7.57501507       2.62401206      10.00191420        2      -0.00004598      -0.00007807       0.00178131
Ti       7.57497609       4.37341069       8.71119233        0      -0.00001124      -0.00002964       0.00219346
Ti       9.08990814       3.49875846      11.29184833        0      -0.00012498      -0.00004839       0.00137835
O        7.57437551       4.37306766      12.23008024        3      -0.00002184      -0.00007283       0.09759850
O        9.09008728       3.49869425       7.77161195        1       0.00005241      -0.00001797       0.00266654
C        6.05999656       5.24809550      10.00188872        2       0.00001445      -0.00008329       0.00177915
Ti       6.05999666       6.99745573       8.71127686        0      -0.00001547      -0.00000774       0.00239668
Ti       7.57496690       6.12267558      11.29185036        0      -0.00007305      -0.00018680       0.00135701
O        6.05991100       6.99672258      12.23008024        3       0.00007650       0.00003881       0.11776293
O        7.57500374       6.12287965       7.77160942        1       0.00002601      -0.00000330       0.00265684
C        4.54500296       7.87217510      10.00219994        2       0.00005927      -0.00003481       0.00191540
Ti       4.54503139       9.62156039       8.71134449        0       0.00000474      -0.00000354       0.00255391
Ti       6.05997890       8.74678225      11.29181845        0      -0.00001763      -0.00007345       0.00140728
O        4.54559644       9.62196898      12.23008024        3      -0.00007853      -0.00010801       0.10510736
O        6.06001412       8.74687632       7.77166007        1       0.00000492       0.00002693       0.00278154
C        0.04508140       0.06755624      17.16165919       10      -0.00035451       0.00025924      -0.03506522
C        1.25711785       0.76731093      17.16165919       10      -0.00441810      -0.00152099      -0.03775823
C       -1.16707615       2.16669363      17.16165919       10       0.00078674       0.00219756      -0.03834212
C        0.04497608       2.86653139      17.16165919       10       0.00060736      -0.00133242      -0.03897024
C       -2.37901442       4.26602397      17.16165919       10      -0.00116405       0.00069137      -0.03081949
C       -1.16699830       4.96577801      17.16165919       10       0.00067055      -0.00047501      -0.02819565
C       -3.59095132       6.36530761      17.16165919       10      -0.00206682       0.00202457      -0.03078529
C       -2.37896616       7.06508658      17.16165919       10       0.00006002      -0.00190476      -0.02912715
C       -4.80313264       8.46460007      17.16165919       10       0.00188359       0.00096012      -0.03622755
C       -3.59102424       9.16437577      17.16165919       10      -0.00038206      -0.00026510      -0.03880026
C        2.46906726       0.06764459      17.16165919       10       0.00078673      -0.00010011      -0.03625699
C        3.68114807       0.76733052      17.16165919       10      -0.00339740      -0.00025249      -0.03351279
C        1.25698525       2.16672841      17.16165919       10       0.00282487       0.00155510      -0.03858822
C        2.46900302       2.86655796      17.16165919       10      -0.00184953       0.00025359      -0.03333307
C        0.04504835       4.26602415      17.16165919       10      -0.00101700       0.00011759      -0.03282071
C        1.25709013       4.96578828      17.16165919       10      -0.00152736       0.00200279      -0.02899288
C       -1.16699563       6.36525194      17.16165919       10      -0.00146232       0.00134623      -0.03896006
C        0.04500614       7.06492707      17.16165919       10       0.00021284       0.00048140      -0.05846207
C       -2.37904596       8.46457337      17.16165919       10       0.00138860       0.00101170      -0.03246920
C       -1.16697741       9.16426832      17.16165919       10       0.00088426       0.00215109      -0.03063079
C        4.89312053       0.06761339      17.16165919       10      -0.00091333      -0.00110691      -0.03232363
C        6.10506386       0.76744480      17.16165919       10       0.00047142      -0.00048515      -0.04163609
C        3.68096912       2.16682747      17.16165919       10       0.00215931       0.00012828      -0.03934442
C        4.89298234       2.86664879      17.16165919       10       0.00174543       0.00066782      -0.04141799
C        2.46906946       4.26606411      17.16165919       10       0.00097714      -0.00243514      -0.03211450
C        3.68106811       4.96583682      17.16165919       10      -0.00097616       0.00257524      -0.04108001
C        1.25709808       6.36529839      17.16165919       10      -0.00178671      -0.00050557      -0.03859651
C        2.46904868       7.06508560      17.16165919       10      -0.00217646      -0.00000506      -0.03114861
C        0.04496920       8.46446419      17.16165919       10      -0.00049232       0.00067968      -0.03700770
C        1.25687982       9.16430743      17.16165919       10       0.00090808       0.00129942      -0.03116674
C        7.31700014       0.06764998      17.16165919       10      -0.00089584      -0.00195019      -0.03270409
C        8.52903266       0.76733287      17.16165919       10      -0.00142566      -0.00084634      -0.03412616
C        6.10494168       2.16693770      17.16165919       10      -0.00023967      -0.00030084      -0.04047107
C        7.31688644       2.86666506      17.16165919       10       0.00141919      -0.00121190      -0.04224915
C        4.89299222       4.26610687      17.16165919       10       0.00153375      -0.00186262      -0.04033290
C        6.10500552       4.96577603      17.16165919       10       0.00101308       0.00003898      -0.04108327
C        3.68102860       6.36531126      17.16165919       10       0.00185041      -0.00010417      -0.03264486
C        4.89305383       7.06506717      17.16165919       10      -0.00281865      -0.00139946      -0.03421123
C        2.46886350       8.46457686      17.16165919       10       0.00339291       0.00039825      -0.03269361
C        3.68090866       9.16432388      17.16165919       10      -0.00079249       0.00024624      -0.03961745
C        9.74105641       0.06759586      17.16165919       10       0.00035667       0.00044164      -0.03354297
C       10.95309419       0.76725840      17.16165919       10      -0.00189858      -0.00081355      -0.03917170
C        8.52891271       2.16681077      17.16165919       10      -0.00005645       0.00207667      -0.03786051
C        9.74090867       2.86655314      17.16165919       10       0.00207330      -0.00189763      -0.03390338
C        7.31703592       4.26610732      17.16165919       10      -0.00064943       0.00060924      -0.04486715
C        8.52899120       4.96584926      17.16165919       10       0.00115897      -0.00056137      -0.04187770
C        6.10504840       6.36528605      17.16165919       10      -0.00056607       0.00149194      -0.03984285
C        7.31704011       7.06509640      17.16165919       10      -0.00078212      -0.00203125      -0.03411643
C        4.89290716       8.46455429      17.16165919       10       0.00440928       0.00168205      -0.03366627
C        6.10490242       9.16433860      17.16165919       10       0.00034091      -0.00010505      -0.03876541
