132
Lattice="12.12 0.0 0.0 -6.06 10.496227893867395 0.0 0.0 0.0 40.0" Properties=species:S:1:pos:R:3:tags:I:1:forces:R:3 energy=-1209.7592245932588 stress="0.0028506497864157466 8.336819045708701e-07 3.496862469552807e-06 8.336819045708701e-07 0.002843866216367113 -3.4279200632175334e-07 3.496862469552807e-06 -3.4279200632175334e-07 0.0022053161930712974" pbc="T T F"
C        0.00364637       0.01823341      10.00312665        2       0.00043742      -0.00123763      -0.00055275
Ti       0.00241508       1.76867512       8.71497027        0       0.00112126       0.00006917       0.00165541
Ti       1.51918379       0.89331097      11.29196121        0       0.00057481      -0.00039662       0.00031082
O        0.00379052       1.76609417      12.23008024        3       0.00157939      -0.00004886       0.09218583
O        1.51536990       0.89489081       7.77381910        1       0.00321876      -0.00007640      -0.00126428
C       -1.51315155       2.64381583      10.01109423        2       0.00183572       0.00023197      -0.00270778
Ti      -1.51303703       4.39293996       8.71910332        0      -0.00097690      -0.00033227      -0.00188127
Ti       0.00075938       3.51660660      11.30263407        0       0.00167571       0.00145422       0.00076896
O       -1.51030390       4.39618551      12.23008024        3       0.00144555       0.00370916       0.07740269
O        0.00024973       3.51800970       7.77768662        1       0.00245931       0.00014421      -0.00078648
C       -3.02774561       5.26796423      10.00892126        2      -0.00058491       0.00112241      -0.00254587
Ti      -3.02787123       7.01704058       8.71410145        0       0.00043787       0.00090239      -0.00234074
Ti      -1.51302161       6.14264993      11.29607551        0       0.00156608       0.00019042      -0.00018808
O       -3.02882861       7.01858243      12.23008024        3       0.00057685       0.00151387       0.12058557
O       -1.51318914       6.14009498       7.77640007        1      -0.00088453       0.00164703      -0.00227281
C       -4.54275645       7.89202526      10.00272764        2      -0.00162253      -0.00097756      -0.00009474
Ti      -4.54319108       9.64066339       8.71251972        0       0.00152409      -0.00003314      -0.00326134
Ti      -3.02704109       8.76653367      11.29270231        0      -0.00130991      -0.00140843       0.00017855
O       -4.54269963       9.64070873      12.23008024        3      -0.00027703      -0.00118626       0.09813024
O       -3.02817004       8.76523302       7.77262023        1       0.00159408      -0.00119925      -0.00062342
C        3.03262701       0.01891114      10.00221494        2       0.00132703       0.00018198      -0.00118157
Ti       3.03191107       1.76868097       8.71293032        0       0.00105917       0.00110196      -0.00164560
Ti       4.54749258       0.89401801      11.29236848        0       0.00030676       0.00008241       0.00117960
O        3.03318995       1.76868957      12.23008024        3      -0.00021464       0.00102889       0.13442419
O        4.54746975       0.89465488       7.77296567        1       0.00290185      -0.00036347      -0.00020882
C        1.51750866       2.64278528      10.00492398        2       0.00185533       0.00186407      -0.00075143
Ti       1.51685917       4.39252180       8.71507187        0      -0.00090698      -0.00045597      -0.00140102
Ti       3.03198503       3.51769820      11.29323600        0       0.00077958       0.00130708      -0.00066590
O        1.52049013       4.39408517      12.23008024        3       0.00280536       0.00078877       0.12489782
O        3.03158333       3.51815770       7.77397907        1      -0.00114896      -0.00043925      -0.00041986
C        0.00206425       5.26752671      10.00623696        2       0.00178257       0.00088716      -0.00104386
Ti       0.00193048       7.01662699       8.71393724        0       0.00027289      -0.00030078      -0.00173051
Ti       1.51696218       6.14222719      11.29375235        0       0.00202732       0.00016245      -0.00226938
O        0.00355201       7.01843007      12.23008024        3      -0.00004165      -0.00036843       0.10163059
O        1.51667396       6.14165165       7.77436135        1      -0.00170461      -0.00151372      -0.00121431
C       -1.51296795       7.89296327      10.00276280        2       0.00196164      -0.00057710       0.00078986
Ti      -1.51328620       9.64049332       8.71146656        0       0.00229599       0.00059771       0.00200021
Ti       0.00255715       8.76654940      11.29206387        0       0.00032887      -0.00044849       0.00260012
O       -1.51227688       9.64106719      12.23008024        3      -0.00095434       0.00006235       0.11398591
O        0.00271902       8.76547423       7.77301232        1      -0.00206442       0.00265022      -0.00020959
C        6.06116857       0.01860073      10.00272989        2       0.00203281      -0.00043769       0.00092062
Ti       6.06165461       1.76822589       8.71372285        0       0.00059125       0.00024390      -0.00040477
Ti       7.57578698       0.89302617      11.29215863        0       0.00119640       0.00043032      -0.00027369
O        6.06117303       1.76839011      12.23008024        3      -0.00033060      -0.00035025       0.11086194
O        7.57871338       0.89544403       7.77653963        1      -0.00083624      -0.00029616      -0.00233747
C        4.54692444       2.64271380      10.00299203        2      -0.00029720       0.00271432      -0.00004601
Ti       4.54736266       4.39229435       8.71299065        0       0.00054870      -0.00012124       0.00143473
Ti       6.06284389       3.51724208      11.29539271        0      -0.00033183      -0.00006451      -0.00011526
O        4.54634412       4.39337809      12.23008024        3       0.00101920      -0.00127165       0.11231160
O        6.06386888       3.51788437       7.77559487        1       0.00046751      -0.00045639       0.00020125
C        3.03189564       5.26712537      10.00290516        2       0.00245542       0.00133619       0.00074180
Ti       3.03200876       7.01669272       8.71252727        0      -0.00030592       0.00030304       0.00060797
Ti       4.54672549       6.14185347      11.29273240        0       0.00114734       0.00001260       0.00303574
O        3.03264983       7.01635819      12.23008024        3       0.00215144      -0.00032447       0.11452897
O        4.54722055       6.14172359       7.77286481        1       0.00075902       0.00083590       0.00217574
C        1.51705493       7.89179425      10.00301131        2       0.00134627      -0.00106210      -0.00093540
Ti       1.51663272       9.64091880       8.71302605        0       0.00134782       0.00071303      -0.00079248
Ti       3.03267036       8.76679243      11.29278636        0      -0.00014945      -0.00091367       0.00019698
O        1.51833619       9.64073814      12.23008024        3      -0.00147112       0.00021370       0.12034833
O        3.03209121       8.76664948       7.77354856        1       0.00056978       0.00143883       0.00004359
C        9.09203113       0.01914563      10.00550430        2       0.00181602      -0.00148547      -0.00106635
Ti       9.09190463       1.76929100       8.72099067        0       0.00127392      -0.00031858      -0.00386280
Ti      10.61134112       0.89227979      11.29234903        0      -0.00076123      -0.00012832       0.00128838
O        9.09502968       1.76502008      12.23008024        3      -0.00465403      -0.00220875       0.26460320
O       10.60614668       0.89568636       7.77691375        1       0.00090268      -0.00173994      -0.00022473
C        7.57784311       2.64310071      10.00958756        2      -0.00043618       0.00156409      -0.00313596
Ti       7.57763859       4.39237374       8.71733934        0      -0.00035802       0.00130732      -0.00078031
Ti       9.09344987       3.52085427      11.31464069        0      -0.00142447       0.00091619      -0.00221079
O        7.57155666       4.39562384      12.23008024        3       0.00065073      -0.00031499       0.09577608
O        9.09279771       3.51776688       7.78043603        1      -0.00088534      -0.00030154      -0.00217838
C        6.06210919       5.26735866      10.00345678        2      -0.00242124       0.00088783       0.00054274
Ti       6.06218838       7.01634522       8.71239140        0      -0.00069384      -0.00034271       0.00155350
Ti       7.57690477       6.14315890      11.29375568        0       0.00057934      -0.00050460      -0.00005539
O        6.06060826       7.01677919      12.23008024        3       0.00246364       0.00025163       0.12602041
O        7.57791302       6.14053227       7.77514378        1       0.00091054       0.00074664      -0.00011829
C        4.54728389       7.89160453      10.00262104        2      -0.00060896      -0.00246314       0.00041494
Ti       4.54695475       9.64102605       8.71269423        0       0.00181977      -0.00047832       0.00030298
Ti       6.06299875       8.76532188      11.29213390        0      -0.00134081       0.00023314       0.00006254
O        4.54794589       9.63880708      12.23008024        3      -0.00033156      -0.00125004       0.10811643
O        6.06156919       8.76615528       7.77293587        1       0.00080216       0.00010846      -0.00076121
C        0.05325565       0.04685469      17.13572799       10      -0.00186535       0.00192803      -0.00220243
C        1.26247360       0.74891152      17.14411622       10      -0.00045279      -0.00040890       0.00143511
C       -1.14448437       2.13683090      17.11135732       10      -0.00204310      -0.00056698       0.21540674
C        0.04917751       2.84703648      17.11899606       10      -0.00214396      -0.00114179       0.02001685
C       -2.37633078       4.27397947      17.11135177       10      -0.00167416      -0.00162032       0.46425892
C       -1.16552011       4.95254916      17.11899350       10      -0.00229194      -0.00039090       0.01578682
C       -3.58860318       6.35547730      17.13572744       10      -0.00046011      -0.00189152      -0.03060591
C       -2.37620884       7.05173017      17.14411602       10       0.00229757      -0.00174997      -0.00238312
C       -4.79955938       8.44803779      17.13383505       10      -0.00211525      -0.00109304      -0.01944300
C       -3.58786426       9.14763766      17.14512471       10      -0.00021144      -0.00048831      -0.04050672
C        2.47336133       0.04989873      17.14614973       10      -0.00237525       0.00127901      -0.03404216
C        3.68374275       0.75042190      17.14512462       10       0.00096862      -0.00090421      -0.03319454
C        1.26472889       2.14737655      17.13572820       10      -0.00113946       0.00163158      -0.01587963
C        2.47289984       2.84955113      17.12666807       10       0.00112876      -0.00151139      -0.03903815
C        0.04774918       4.24890045      17.09286818       10      -0.00286581      -0.00311220       0.14792562
C        1.25864568       4.94802612      17.10453813       10      -0.00369469      -0.00203531      -0.07808043
C       -1.16392024       6.35513835      17.13572744       10       0.00088139      -0.00048209      -0.04232824
C        0.04820675       7.04928879      17.12666817       10       0.00095782       0.00066185      -0.05335862
C       -2.37609791       8.44952459      17.14614994       10      -0.00173156      -0.00080365      -0.02508252
C       -1.16425325       9.14746036      17.14512471       10       0.00039733      -0.00001490      -0.02901624
C        4.89413156       0.04977508      17.14614973       10      -0.00059760       0.00053063      -0.02837662
C        6.10487994       0.74890596      17.14411622       10       0.00032060      -0.00181075      -0.01023214
C        3.68362313       2.14950899      17.13383492       10       0.00034149       0.00352725      -0.02059278
C        4.89455688       2.84948698      17.12666807       10       0.00166414      -0.00063408      -0.04639413
C        2.47233471       4.24895766      17.11278457       10      -0.00163276       0.00025635      -0.04131719
C        3.68430983       4.94856800      17.10999671       10      -0.00258035       0.00062991      -0.02651255
C        1.25940779       6.34842519      17.11278447       10      -0.00102133      -0.00267609      -0.05057206
C        2.47165811       7.04768142      17.10999660       10      -0.00282011      -0.00006033      -0.01924096
C        0.04724821       8.44756236      17.13383505       10       0.00064543       0.00080071      -0.02121995
C        1.25875751       9.14590244      17.12666792       10       0.00093385       0.00096875      -0.03230585
C        7.31413125       0.04665502      17.13572799       10       0.00155401       0.00157504       0.00656390
C        8.52783836       0.74887571      17.11899587       10      -0.00065110       0.00058975       0.00737394
C        6.10248047       2.14745936      17.13572820       10      -0.00058258       0.00149318      -0.01701537
C        7.31822724       2.84704149      17.11899606       10      -0.00023741      -0.00213427       0.01791515
C        4.89618159       4.24880956      17.11278457       10      -0.00151331       0.00376736      -0.04998641
C        6.11008327       4.94773226      17.10453813       10      -0.00006834      -0.00086414      -0.08032964
C        3.68407349       6.34804208      17.10691871       10      -0.00047530       0.00066396      -0.04748197
C        4.89636137       7.04773333      17.10999660       10      -0.00160079       0.00029894      -0.01597065
C        2.47143842       8.44728273      17.11278430       10       0.00084677      -0.00026434      -0.03596370
C        3.68391186       9.14850674      17.10453772       10      -0.00193807      -0.00017960      -0.06992399
C        9.74386744       0.05042936      17.09286813       10       0.00037914       0.00098235       0.13478565
C       10.95946152       0.74910511      17.11899587       10      -0.00300558       0.00041599       0.00159876
C        8.51071388       2.13676266      17.11135732       10      -0.00012032       0.00035747       0.26739819
C        9.74222424       2.84692889      16.86699806       10      -0.00240063       0.00267272      -2.09655779
C        7.32112474       4.24899317      17.09286818       10      -0.00342119      -0.00034471       0.11933633
C        8.53376018       4.95285546      17.11899350       10      -0.00052587      -0.00287003       0.00865307
C        6.10849835       6.34839808      17.11278447       10      -0.00062835       0.00059808      -0.05094596
C        7.31939421       7.04982812      17.12666817       10       0.00237116      -0.00196203      -0.03482772
C        4.89650238       8.44736399      17.11278430       10       0.00032390       0.00036754      -0.04001898
C        6.10892368       9.14626628      17.12666792       10      -0.00140950       0.00024912      -0.03459688
O        9.75700294       2.93357989      15.28450278       11      -0.00088598      -0.00589888      -0.00229450
H        9.59869857       2.05595268      14.88891996       12       0.00089577       0.00391029       0.00112827
