130
Lattice="12.12 0.0 0.0 -6.06 10.496227893867395 0.0 0.0 0.0 40.0" Properties=species:S:1:pos:R:3:tags:I:1:forces:R:3 energy=-1200.7522213813086 stress="0.0027559570152828733 -1.5761325203451253e-07 6.195326141599369e-07 -1.5761325203451253e-07 0.0027564230195121836 9.821093314507672e-07 6.195326141599369e-07 9.821093314507672e-07 0.0029442728694580094" pbc="T T F"
C       -0.00000018       0.00001418      10.00418002        2       0.00008309       0.00016480       0.00525516
Ti      -0.00001272       1.74934399       8.71230096        0       0.00010708       0.00010408       0.00569997
Ti       1.51567951       0.87517703      11.29685776        0       0.00055348       0.00057743       0.00240135
O        0.00002193       1.74994446      12.23008024        3       0.00015069       0.00078780      -0.24274342
O        1.51475642       0.87461424       7.77273497        1      -0.00060472      -0.00025650       0.00509019
C       -1.51499948       2.62418402      10.00365594        2      -0.00011804       0.00031061       0.00384690
Ti      -1.51490685       4.37347721       8.71087849        0       0.00002909      -0.00000600       0.00348810
Ti       0.00006707       3.50034729      11.29563972        0       0.00029361       0.00094051       0.00125080
O       -1.51539741       4.37601790      12.23008024        3      -0.00008384       0.00061638      -0.25393886
O        0.00003763       3.49824795       7.77232466        1      -0.00005257      -0.00093210       0.00363724
C       -3.03010665       5.24808268      10.00197106        2       0.00006051       0.00018259       0.00259669
Ti      -3.02991137       6.99756348       8.71075106        0      -0.00004315       0.00010879       0.00339929
Ti      -1.51376360       6.12382570      11.29503271        0       0.00035083       0.00029977       0.00042024
O       -3.02814355       6.99624784      12.23008024        3       0.00027688      -0.00017865      -0.25435845
O       -1.51504917       6.12273631       7.77185044        1      -0.00043499      -0.00011452       0.00216034
C       -4.54497705       7.87219295      10.00350599        2       0.00014792      -0.00005110       0.00374886
Ti      -4.54504693       9.62154222       8.71218860        0      -0.00008005       0.00024942       0.00573779
Ti      -3.02857779       8.74631094      11.29552600        0       0.00054141       0.00003321       0.00111609
O       -4.54467629       9.62147899      12.23008024        3       0.00059848      -0.00008986      -0.24544735
O       -3.03043312       8.74716671       7.77220295        1      -0.00088953       0.00055521       0.00355525
C        3.03005779       0.00005338      10.00359245        2       0.00025178       0.00009288       0.00387535
Ti       3.03002034       1.74938996       8.71149917        0       0.00000767       0.00023135       0.00455401
Ti       4.54583545       0.87402628      11.29536733        0       0.00068667       0.00032041       0.00122209
O        3.03139408       1.75004789      12.23008024        3       0.00089715       0.00059548      -0.24714277
O        4.54455033       0.87465470       7.77193206        1      -0.00055273       0.00001456       0.00255889
C        1.51504568       2.62421041      10.00373554        2       0.00021497       0.00026852       0.00397990
Ti       1.51491161       4.37343355       8.71094945        0       0.00012698      -0.00005028       0.00322202
Ti       3.03003736       3.49998963      11.29548683        0       0.00048834       0.00065461       0.00157853
O        1.51526887       4.37609226      12.23008024        3       0.00032911       0.00068723      -0.25586467
O        3.02967235       3.49841479       7.77198902        1      -0.00032033      -0.00045512       0.00260607
C       -0.00000649       5.24796500      10.00202758        2       0.00001836       0.00040003       0.00280288
Ti      -0.00000496       6.99750568       8.71050947        0       0.00009777      -0.00000741       0.00217038
Ti       1.51415723       6.12379649      11.29461676        0       0.00034664       0.00035400       0.00003117
O        0.00030891       6.99809629      12.23008024        3       0.00018987       0.00026229      -0.24176646
O        1.51505733       6.12268257       7.77185393        1       0.00029930      -0.00011991       0.00190552
C       -1.51521844       7.87233969      10.00182482        2       0.00019694       0.00011031       0.00284535
Ti      -1.51508241       9.62148362       8.71074899        0      -0.00007791       0.00015260       0.00330540
Ti       0.00019710       8.74631438      11.29416980        0       0.00028840       0.00011270       0.00023178
O       -1.51273765       9.62038456      12.23008024        3       0.00056955       0.00009622      -0.25760723
O       -0.00004095       8.74698703       7.77176170        1      -0.00006514       0.00053633       0.00189222
C        6.05998173       0.00019468      10.00195108        2       0.00018153       0.00001338       0.00245112
Ti       6.06001780       1.74908433       8.70999416        0      -0.00003147       0.00011150       0.00222503
Ti       7.57461601       0.87397908      11.29512544        0      -0.00031323       0.00026024       0.00111327
O        6.06035519       1.74958970      12.23008024        3       0.00008077       0.00025673      -0.25019849
O        7.57535972       0.87462637       7.77182221        1       0.00069102       0.00019584       0.00240484
C        4.54497139       2.62404840      10.00217959        2       0.00037820       0.00022639       0.00229667
Ti       4.54480041       4.37357496       8.70995536        0      -0.00002710       0.00003244       0.00217426
Ti       6.05982037       3.49842983      11.29102206        0       0.00005110       0.00009370      -0.00021326
O        4.54569364       4.37372256      12.23008024        3       0.00028414       0.00011666      -0.24883097
O        6.05991653       3.49868142       7.77128685        1       0.00019980       0.00003004       0.00107968
C        3.03010825       5.24804828      10.00203801        2       0.00017457       0.00027622       0.00261915
Ti       3.02991225       6.99757036       8.71067088        0       0.00014346       0.00001464       0.00294453
Ti       4.54427005       6.12284235      11.29486753        0       0.00002567      -0.00027360       0.00123573
O        3.02807483       6.99663017      12.23008024        3       0.00010814      -0.00001422      -0.25663288
O        4.54505142       6.12314146       7.77178394        1       0.00041761       0.00060798       0.00230654
C        1.51522632       7.87234349      10.00162131        2      -0.00003288       0.00019764       0.00258603
Ti       1.51505692       9.62146046       8.71061474        0       0.00007538       0.00009633       0.00305442
Ti       3.02863919       8.74625530      11.29518099        0      -0.00029218      -0.00003016       0.00119478
O        1.51310441       9.62029003      12.23008024        3      -0.00010145       0.00025885      -0.25788718
O        3.03043788       8.74712309       7.77211675        1       0.00102605       0.00071560       0.00320054
C        9.09005275       0.00008084      10.00336510        2      -0.00004334       0.00022705       0.00360557
Ti       9.09001640       1.74936463       8.71125327        0       0.00004596       0.00010270       0.00452612
Ti      10.60478209       0.87495445      11.29691723        0      -0.00007250       0.00055255       0.00270552
O        9.08814653       1.75015161      12.23008024        3      -0.00037788       0.00055782      -0.24868582
O       10.60534553       0.87462248       7.77264033        1       0.00066249      -0.00016488       0.00494677
C        7.57502300       2.62403593      10.00183988        2      -0.00006565       0.00021711       0.00226507
Ti       7.57516739       4.37353698       8.70981852        0      -0.00006315       0.00000662       0.00215980
Ti       9.08985194       3.49977009      11.29512353        0      -0.00019536       0.00054267       0.00126839
O        7.57440312       4.37332367      12.23008024        3      -0.00011254       0.00009402      -0.24567510
O        9.09035795       3.49847006       7.77184143        1       0.00031910      -0.00038250       0.00260987
C        6.05998656       5.24815025      10.00162755        2       0.00014794      -0.00009767       0.00222010
Ti       6.05999169       6.99753022       8.71109306        0      -0.00008209       0.00006885       0.00428655
Ti       7.57562600       6.12244368      11.29476761        0       0.00023724      -0.00049582       0.00087177
O        6.05984430       6.99519344      12.23008024        3       0.00020337      -0.00045737      -0.24785975
O        7.57494521       6.12320789       7.77175380        1      -0.00015319       0.00054828       0.00243536
C        4.54506089       7.87221666      10.00334749        2       0.00011307       0.00002378       0.00365276
Ti       4.54504363       9.62155616       8.71202779        0       0.00015974       0.00014475       0.00567352
Ti       6.06005570       8.74677281      11.29709680        0       0.00024680      -0.00028461       0.00243091
O        4.54473208       9.62143601      12.23008024        3      -0.00029309      -0.00006026      -0.24786313
O        6.06005907       8.74723010       7.77258464        1       0.00009942       0.00082831       0.00490675
C        0.04505486       0.06741425      15.45639603       10      -0.00160786      -0.00011594       0.12787679
C        1.25718736       0.76725999      15.45639603       10      -0.00585134      -0.00221280       0.06194585
C       -1.16723900       2.16684164      15.45639603       10       0.00180169       0.00170841       0.08701137
C        0.04478286       2.86622369      15.45639603       10       0.00142065      -0.00210169       0.06526178
C       -2.37914971       4.26597355      15.45639603       10      -0.00101890       0.00070310       0.07769133
C       -1.16723612       4.96528241      15.45639603       10      -0.00000698      -0.00093545       0.07946931
C       -3.59080586       6.36505029      15.45639603       10      -0.00337791       0.00205299       0.07858811
C       -2.37923032       7.06482844      15.45639603       10      -0.00125314      -0.00171234       0.08144927
C       -4.80301607       8.46428901      15.45639603       10       0.00303421       0.00040907       0.08324088
C       -3.59130950       9.16421341      15.45639603       10       0.00034844      -0.00038788       0.06762855
C        2.46934748       0.06733941      15.45639603       10      -0.00106946      -0.00075986       0.08578728
C        3.68118591       0.76745576      15.45639603       10      -0.00479261      -0.00055872       0.07061028
C        1.25686102       2.16689729      15.45639603       10       0.00317941       0.00106368       0.08993586
C        2.46913305       2.86625869      15.45639603       10      -0.00073748      -0.00007393       0.06989263
C        0.04501232       4.26602361      15.45639603       10      -0.00143273      -0.00023578       0.07064728
C        1.25725820       4.96518646      15.45639603       10      -0.00204322       0.00203116       0.07718951
C       -1.16673983       6.36515028      15.45639603       10      -0.00312023       0.00116800       0.05230844
C        0.04508951       7.06471535      15.45639603       10      -0.00129263       0.00082910       0.09316650
C       -2.37898305       8.46430652      15.45639603       10       0.00199332       0.00033625       0.06685137
C       -1.16732413       9.16437342      15.45639603       10       0.00168689       0.00223086       0.07745080
C        4.89328808       0.06744627      15.45639603       10      -0.00263451      -0.00117182       0.07447746
C        6.10498329       0.76784236      15.45639603       10      -0.00006619      -0.00140736       0.07638648
C        3.68105858       2.16675412      15.45639603       10       0.00253140       0.00013811       0.07591923
C        4.89295544       2.86672214      15.45639603       10       0.00337808      -0.00025146       0.08764688
C        2.46915268       4.26596660      15.45639603       10       0.00017346      -0.00216642       0.07613577
C        3.68140586       4.96543118      15.45639603       10      -0.00060202       0.00170761       0.07704103
C        1.25705163       6.36511261      15.45639603       10      -0.00366453      -0.00038803       0.05016259
C        2.46933655       7.06484949      15.45639603       10      -0.00298265      -0.00047656       0.08288722
C        0.04486290       8.46420317      15.45639603       10      -0.00025761       0.00081277       0.05013817
C        1.25687070       9.16445297      15.45639603       10       0.00223947       0.00064870       0.08178113
C        7.31681304       0.06752036      15.45639603       10      -0.00197203      -0.00269323       0.07399305
C        8.52894307       0.76752033      15.45639603       10      -0.00233249      -0.00095743       0.07125341
C        6.10487122       2.16699531      15.45639603       10       0.00094730      -0.00123086       0.08148741
C        7.31676725       2.86674479      15.45639603       10       0.00282280      -0.00179039       0.09423086
C        4.89309382       4.26608272      15.45639603       10       0.00172715      -0.00233230       0.08338523
C        6.10505498       4.96570358      15.45639603       10       0.00116114      -0.00031744       0.09923026
C        3.68095151       6.36508768      15.45639603       10       0.00054210      -0.00052129       0.07691917
C        4.89327183       7.06472751      15.45639603       10      -0.00374578      -0.00142995       0.07038579
C        2.46854111       8.46433908      15.45639603       10       0.00440184      -0.00009240       0.06260029
C        3.68094416       9.16423989      15.45639603       10       0.00046381       0.00022294       0.07008017
C        9.74075962       0.06736716      15.45639603       10      -0.00041113      -0.00019529       0.08049453
C       10.95308309       0.76724990      15.45639603       10      -0.00347538      -0.00103937       0.06212055
C        8.52864829       2.16679359      15.45639603       10       0.00100395       0.00118523       0.07645983
C        9.74056898       2.86636105      15.45639603       10       0.00285302      -0.00252276       0.07158676
C        7.31688060       4.26601506      15.45639603       10      -0.00047961       0.00061640       0.08483245
C        8.52856113       4.96546434      15.45639603       10       0.00076764      -0.00124074       0.07960058
C        6.10513411       6.36507055      15.45639603       10      -0.00182263       0.00177076       0.07737367
C        7.31696183       7.06479927      15.45639603       10      -0.00200692      -0.00216928       0.07132697
C        4.89257024       8.46422564      15.45639603       10       0.00561160       0.00158477       0.07998567
C        6.10484534       9.16418937      15.45639603       10       0.00127353      -0.00044742       0.06315275
