132
Lattice="12.12 0.0 0.0 -6.06 10.496227893867395 0.0 0.0 0.0 40.0" Properties=species:S:1:pos:R:3:tags:I:1:forces:R:3 energy=-1209.4231579731825 stress="0.0027453230912993795 2.996210224961669e-07 -4.083352006976399e-07 2.996210224961669e-07 0.0027376587647049604 4.281057774631093e-07 -4.083352006976399e-07 4.281057774631093e-07 0.002847299869929351" pbc="T T F"
C        0.26033872      -0.18616100       9.99621568        2       0.00326231       0.00399984      -0.00005455
Ti       0.26019435       1.56795072       8.71171953        0      -0.00248067      -0.00160975       0.00660324
Ti       1.77457528       0.69201472      11.29843564        0       0.00138952      -0.00028033      -0.00342249
O        0.25977160       1.56227712      12.23008024        3      -0.00306122       0.00099392      -0.24057000
O        1.76874652       0.69406779       7.77198040        1      -0.00132034       0.00926459       0.00040983
C       -1.26717504       2.45033718      10.02786181        2      -0.00118212      -0.00125280       0.00674781
Ti      -1.25650311       4.18960631       8.72775163        0      -0.00950365      -0.00146797       0.00198218
Ti       0.25587873       3.31887537      11.30602704        0       0.00181244       0.00605644       0.00140951
O       -1.18277209       4.24440877      12.23008024        3      -0.00537666      -0.00299457      -0.58730237
O        0.24916730       3.31561332       7.77951942        1       0.00146332      -0.00171862      -0.00221649
C       -2.77342409       5.05568500      10.03373964        2       0.00092826      -0.00104202       0.00024910
Ti      -2.77339608       6.81660881       8.71968470        0      -0.00167083      -0.00318242      -0.00305590
Ti      -1.25060120       5.94715113      11.30780671        0       0.00341702       0.00343258      -0.00116430
O       -2.77422733       6.82769640      12.23008024        3       0.00395906       0.00065930      -0.17983751
O       -1.26491032       5.93595672       7.78279849        1       0.00042918      -0.00053624      -0.00358549
C       -4.28936043       7.69472874       9.99860898        2       0.00298538       0.00146828      -0.00031399
Ti      -4.28813822       9.43790844       8.70868850        0      -0.00121511       0.00216975      -0.00029587
Ti      -2.77358058       8.57002303      11.29676290        0       0.00298818      -0.00249158      -0.00233345
O       -4.28715461       9.43956542      12.23008024        3       0.00018632       0.00426312      -0.25234629
O       -2.77248962       8.55854282       7.77283086        1      -0.00256182      -0.00121702      -0.00347744
C        3.28686276      -0.18208077       9.99820296        2       0.00004838      -0.00045916       0.00358452
Ti       3.28731818       1.56713866       8.70995370        0      -0.00255149       0.00083309       0.00155227
Ti       4.79849079       0.69300752      11.29793450        0      -0.00087893      -0.00280788       0.00000453
O        3.28590769       1.56446572      12.23008024        3       0.00535070       0.00133700      -0.23079250
O        4.80600757       0.69504253       7.77248021        1      -0.00078787      -0.00047451       0.00073834
C        1.77529852       2.44028483      10.00011924        2      -0.00421599       0.00063952       0.00038061
Ti       1.77219344       4.19214870       8.71029638        0       0.00084756       0.00234589      -0.00021752
Ti       3.28585832       3.31515109      11.29549074        0       0.00325601       0.00723548      -0.00033902
O        1.78391483       4.19573064      12.23008024        3      -0.00778703       0.00114180      -0.24832213
O        3.28658290       3.31710269       7.77044570        1       0.00032835      -0.00132091      -0.00044415
C        0.26411235       5.07082754       9.99761058        2      -0.00004569       0.00215421      -0.00284947
Ti       0.25627827       6.81524837       8.70949389        0       0.00340881      -0.00240766      -0.00431998
Ti       1.77545821       5.94204677      11.29104606        0       0.00539682      -0.00205929      -0.00022385
O        0.26714048       6.82592207      12.23008024        3       0.00179649      -0.00286990      -0.22036068
O        1.77095589       5.94007426       7.76832322        1      -0.00150624      -0.00105910      -0.00113299
C       -1.25751102       7.69505151       9.99937000        2      -0.00191485       0.00347595      -0.00472533
Ti      -1.25776470       9.43785585       8.70872977        0       0.00073791       0.00664631       0.00251946
Ti       0.25764727       8.56589903      11.29673189        0      -0.00261160       0.00109419       0.00073487
O       -1.25992861       9.44097447      12.23008024        3      -0.00019687      -0.00450707      -0.24840346
O        0.25677732       8.56397858       7.76881577        1      -0.00588864       0.00029082      -0.00352974
C        6.31347637      -0.18533457       9.99738515        2      -0.00114587       0.00021427      -0.00242980
Ti       6.31472260       1.56762196       8.71325284        0      -0.00179036       0.00258133      -0.00164912
Ti       7.81623668       0.67709249      11.27139564        0       0.00099460      -0.00148906       0.00262322
O        6.31429153       1.56301201      12.23008024        3      -0.00019505      -0.00058998      -0.23405118
O        7.83371905       0.70240568       7.77798860        1      -0.00331145      -0.00142042      -0.00117964
C        4.79845529       2.44067555      10.00062642        2      -0.00007564      -0.00314844      -0.00194968
Ti       4.80114112       4.19146311       8.71006224        0       0.00443242       0.00349326      -0.00074781
Ti       6.31689460       3.31991610      11.30681476        0       0.00152731      -0.00017095      -0.00297576
O        4.78949354       4.19566340      12.23008024        3       0.00326913       0.00111993      -0.24732921
O        6.32446241       3.31526929       7.77994091        1      -0.00105248      -0.00184646       0.00028159
C        3.28636964       5.06646412       9.99755620        2       0.00010144       0.00133709       0.00014521
Ti       3.28661301       6.81559330       8.70504878        0       0.00105417      -0.00592869      -0.00244520
Ti       4.79613251       5.94116596      11.29000532        0       0.00297502       0.00311144       0.00281296
O        3.28649119       6.81720936      12.23008024        3      -0.00020503      -0.00102789      -0.24006195
O        4.80206401       5.93944195       7.76782997        1       0.00022982       0.00170810      -0.00078964
C        1.77246243       7.68996459       9.99618459        2       0.00056433      -0.00246980      -0.00231873
Ti       1.77455838       9.44000030       8.70345825        0      -0.00287783      -0.00325725      -0.00560216
Ti       3.28733359       8.56257580      11.29744307        0      -0.00530770      -0.00205555       0.00073710
O        1.76979251       9.42609820      12.23008024        3      -0.00146764      -0.00538194      -0.29708297
O        3.28670734       8.56452261       7.76428125        1       0.00074437      -0.00287423      -0.00211162
C        9.34727783      -0.19032701       9.98778999        2       0.00032776      -0.00143953      -0.00127615
Ti       9.34723244       1.57260979       8.73089182        0       0.00067175       0.00120112       0.00627842
Ti      10.87770954       0.67590415      11.26985385        0       0.00163143       0.00195548       0.00625349
O        9.34806325       1.42697856      12.23008024        3      -0.00892683      -0.00026138      -0.44642354
O       10.86088483       0.70261045       7.77679122        1      -0.00153214      -0.00246546       0.00094751
C        7.84144857       2.45054939      10.02864895        2       0.00194384      -0.00129816       0.00210207
Ti       7.83053469       4.18912877       8.72806525        0       0.00414327       0.00194187      -0.00167060
Ti       9.34681045       3.35812080      11.30935711        0       0.00030718      -0.00616604       0.00123383
O        7.75748672       4.24388570      12.23008024        3      -0.00066689      -0.00086926      -0.58233712
O        9.34674874       3.31956142       7.78466187        1       0.00132762      -0.00018778      -0.00051909
C        6.30861629       5.07049368       9.99725445        2       0.00528448       0.00354575       0.00139011
Ti       6.31678980       6.81443911       8.70817774        0       0.00003186       0.00127238      -0.00182160
Ti       7.82240105       5.94724058      11.30781211        0       0.00325688       0.00033884      -0.00203837
O        6.30499192       6.82516186      12.23008024        3       0.00375500      -0.00214202      -0.22685441
O        7.83802180       5.93547103       7.78215327        1       0.00513750       0.00042943       0.00164574
C        4.80098595       7.68962254       9.99513247        2      -0.00129055      -0.00260672       0.00105309
Ti       4.80017862       9.44013342       8.70133355        0      -0.00185449      -0.00736955       0.00222979
Ti       6.31557169       8.56425458      11.29527654        0       0.00241657       0.00703871       0.00447157
O        4.80441656       9.42482297      12.23008024        3      -0.00041557       0.00196742      -0.30347023
O        6.31776851       8.56366353       7.76741423        1       0.00025315      -0.00031056       0.00044326
C       -0.33936209       0.36189554      15.57257010       10      -0.00438149       0.00027408       0.09385322
C        0.86956299       1.06456978      15.58095833       10      -0.00513190      -0.00013638       0.08664342
C       -1.53138779       2.45049364      15.54819943       10       0.00087813       0.00325198       0.80090655
C       -0.34303796       3.16255421      15.55583817       10      -0.00062117       0.00140275       0.12445656
C       -2.77020479       4.59318395      15.54819388       10       0.00188116      -0.00071148       0.60843265
C       -1.55975549       5.26792491      15.55583561       10      -0.00068970      -0.00086797       0.10353363
C       -3.98283314       6.67135644      15.57256955       10      -0.00249373       0.00238117       0.05772380
C       -2.77025780       7.36694857      15.58095813       10       0.00015237      -0.00558011       0.08750622
C       -5.19352202       8.76299413      15.57067716       10       0.00053000       0.00407436       0.08168770
C       -3.98221894       9.46271607      15.58196682       10       0.00421229       0.00028017       0.07149145
C        2.07997254       0.36485586      15.58299184       10      -0.00145182       0.00074686       0.06898592
C        3.28986504       1.06606693      15.58196673       10      -0.00263603       0.00440172       0.06469767
C        0.87364136       2.46264780      15.57257031       10      -0.00024114      -0.00178256       0.07005174
C        2.07962405       3.16614960      15.56351018       10      -0.00198201      -0.00107580       0.06089479
C       -0.34587609       4.56538419      15.52971029       10      -0.00123995      -0.00021762       0.22233906
C        0.86439553       5.26410007      15.54138024       10      -0.00335774      -0.00611841       0.01667767
C       -1.55759743       6.67153074      15.57256955       10       0.00203154       0.00051816       0.05770575
C       -0.34556174       7.36471936      15.56351028       10       0.00137148      -0.00059572       0.05367223
C       -2.77032393       8.76497547      15.58299205       10       0.00107902      -0.00385062       0.07561825
C       -1.55842942       9.46276008      15.58196682       10      -0.00073231      -0.00133816       0.07186515
C        4.49970654       0.36484892      15.58299184       10      -0.00151524       0.00161726       0.06911025
C        5.71011503       1.06454074      15.58095833       10       0.00267231      -0.00115668       0.08656265
C        3.28978973       2.46522421      15.57067703       10       0.00149111       0.00197810       0.08346024
C        4.50001783       3.16606904      15.56351018       10       0.00111018      -0.00022162       0.06077513
C        2.07812691       4.56532889      15.54962668       10      -0.00132527      -0.00228680       0.05676635
C        3.28991452       5.26484001      15.54683882       10      -0.00222137       0.00306127       0.12229774
C        0.86556162       6.66459732      15.54962658       10      -0.00137229      -0.00631466       0.04784603
C        2.07783837       7.36402589      15.54683871       10      -0.00245649      -0.00121015       0.09903155
C       -0.34704911       8.76315726      15.57067716       10       0.00101743       0.00245366       0.08138041
C        0.86484749       9.46161346      15.56351003       10       0.00115772       0.00173284       0.06408158
C        6.91901129       0.36195088      15.57257010       10       0.00373871       0.00099592       0.09385387
C        8.13357114       1.06520832      15.55583798       10       0.00146081       0.00004119       0.12096237
C        5.70596540       2.46254823      15.57257031       10       0.00243829      -0.00019153       0.06995076
C        6.92267908       3.16244148      15.55583817       10      -0.00101891       0.00248103       0.12446342
C        4.50164213       4.56523464      15.54962668       10      -0.00169334      -0.00214323       0.05692572
C        5.71532656       5.26395118      15.54138024       10      -0.00007551      -0.00437504       0.01700054
C        3.28981952       6.66430858      15.54376082       10      -0.00029607       0.00267036       0.06198418
C        4.50177827       7.36396103      15.54683871       10       0.00289426      -0.00018911       0.09945944
C        2.07739539       8.76365251      15.54962641       10      -0.00171926      -0.00029476       0.05267936
C        3.28973735       9.46556590      15.54137983       10       0.00045421       0.00053775       0.02410747
C        9.34973492       0.36701977      15.52971024       10       0.00278456       0.00295708       0.22963184
C       10.56602173       1.06508142      15.55583798       10      -0.00028344       0.00402439       0.12098039
C        8.11109265       2.45057774      15.54819943       10      -0.00170214       0.00099328       0.80186446
C        9.34987992       3.16272316      15.30384017       10      -0.00264762      -0.00277291      -1.27283237
C        6.92546085       4.56519772      15.52971029       10       0.00452505       0.00173590       0.22177710
C        8.13929771       5.26775473      15.55583561       10       0.00244285       0.00111750       0.10376485
C        5.71403070       6.66443049      15.54962658       10       0.00195938      -0.00423479       0.04774068
C        6.92513671       7.36453597      15.56351028       10      -0.00253496       0.00150509       0.05359423
C        4.50208844       8.76360459      15.54962641       10       0.00235631       0.00060714       0.05234058
C        5.71464601       9.46152205      15.56351003       10      -0.00021335       0.00255599       0.06422997
O        9.34967506       3.12305728      13.83044649       11      -0.00256013      -0.00477414       0.00154796
H        9.34855010       2.17328250      13.46836068       12       0.00245542       0.00182065      -0.00287485
