131
Lattice="12.12 0.0 0.0 -6.06 10.496227893867395 0.0 0.0 0.0 40.0" Properties=species:S:1:pos:R:3:tags:I:1:forces:R:3 energy=-1205.247695977287 stress="0.002795921148893647 1.4286462192656768e-07 -1.1474050823639618e-06 1.4286462192656768e-07 0.00279491316311301 -2.8971618462986336e-06 -1.1474050823639618e-06 -2.8971618462986336e-06 0.0028710522546047694" pbc="T T F"
C        0.24887224      -0.09571553       9.99260034        2      -0.00176378       0.00019492       0.00476572
Ti       0.25594080       1.64648107       8.70449676        0      -0.00040666      -0.00168190       0.00334552
Ti       1.78204337       0.79298059      11.26776010        0       0.00344860       0.00016553      -0.00447419
O        0.23805508       1.66315532      12.23008024        3       0.00247617      -0.00104859      -0.28343423
O        1.77986606       0.76285370       7.78735829        1       0.00151810       0.00103594      -0.00057936
C       -1.25991095       2.52276926       9.99558423        2      -0.00379372      -0.00110015       0.00421122
Ti      -1.26146506       4.27389455       8.70494479        0      -0.00070731       0.00361595       0.00063245
Ti       0.24972906       3.39449465      11.31030952        0       0.00343112       0.00123875      -0.00242175
O       -1.25570108       4.24997413      12.23008024        3       0.00321241      -0.00088361      -0.28290352
O        0.25514650       3.39825539       7.76778855        1      -0.00008869      -0.00427178      -0.00002105
C       -2.77347074       5.13862543       9.99250548        2      -0.00038150      -0.00297931      -0.00012140
Ti      -2.77352923       6.90740748       8.77411097        0       0.00053541       0.00050170      -0.00103773
Ti      -1.23687768       6.02193140      11.26832190        0      -0.00242422      -0.00069433      -0.00716985
O       -2.77352410       6.73250932      12.23008024        3       0.00263893       0.00275276      -0.08122905
O       -1.26447411       6.03565936       7.78747303        1       0.00093635       0.00129173       0.00177587
C       -4.29454630       7.76836800      10.05862022        2       0.00102729      -0.00120787       0.00030118
Ti      -4.27978578       9.51665075       8.77387093        0       0.00467129      -0.00240272      -0.00181468
Ti      -2.77503282       8.64434489      11.87671642        0       0.00061003      -0.00655695      -0.00066683
O       -4.42765349       9.60224097      12.23008024        3       0.00445840      -0.00211678      -0.06590938
O       -2.77372194       8.64612524       7.83954451        1      -0.00197254       0.00283239      -0.00062691
C        3.28584861      -0.09269036      10.05731029        2       0.00244612       0.00014772      -0.00009328
Ti       3.28659362       1.65708428       8.69665232        0      -0.00217026      -0.00468559      -0.00047290
Ti       4.79019631       0.79197774      11.26776097        0      -0.00158948       0.00634357      -0.00292452
O        3.28630719       1.66871991      12.23008024        3      -0.00137668      -0.00043493      -0.20985918
O        4.79287167       0.76243207       7.78760491        1      -0.00114119       0.00141861      -0.00048667
C        1.76899005       2.53287875       9.99451514        2      -0.00189915       0.00200709       0.00362943
Ti       1.76836813       4.27202295       8.71016881        0      -0.00199284      -0.00460085      -0.00066165
Ti       3.28648614       3.40494755      11.29631249        0      -0.00026747      -0.00154864       0.00209687
O        1.77285491       4.27354467      12.23008024        3      -0.00216600       0.00114986      -0.22934643
O        3.28695068       3.39329839       7.76764570        1      -0.00229921      -0.00586467       0.00054924
C        0.26297605       5.14097054       9.99490525        2       0.00176088      -0.00084938       0.00214182
Ti       0.26233200       6.89384495       8.69682883        0       0.00030341      -0.00126061       0.00186574
Ti       1.77730840       6.01882150      11.29668124        0      -0.00240199       0.00142780      -0.00142769
O        0.27335702       6.88693966      12.23008024        3      -0.00129832       0.00110877      -0.20432482
O        1.76644391       6.02635784       7.76797841        1      -0.00379334      -0.00081338       0.00081549
C       -1.25259634       7.76769031      10.05802668        2      -0.00015025       0.00123586       0.00333755
Ti      -1.26836197       9.51593615       8.77401752        0       0.00239009       0.00164083      -0.00249043
Ti       0.26630239       8.62775909      11.26830972        0       0.00082186       0.00025777      -0.00657899
O       -1.12202296       9.60073620      12.23008024        3      -0.00546949      -0.00590272      -0.05743189
O        0.24155526       8.64517552       7.78776605        1       0.00133373      -0.00130901       0.00146470
C        6.32323576      -0.09623827       9.99329662        2       0.00308688       0.00099226       0.00176844
Ti       6.31679338       1.64580642       8.70505521        0       0.00077424       0.00009095       0.00252010
Ti       7.83058116       0.77402845      11.30770430        0      -0.00394012      -0.00093888      -0.00140614
O        6.33410707       1.66292397      12.23008024        3      -0.00102824      -0.00162519      -0.28299123
O        7.83129002       0.77413886       7.76726707        1      -0.00155795       0.00034867      -0.00044857
C        4.80398151       2.53249848       9.99472377        2       0.00058360       0.00286666       0.00262959
Ti       4.80549681       4.27149887       8.71015439        0      -0.00308589       0.00049507      -0.00075336
Ti       6.32266833       3.39456244      11.31062346        0       0.00135494      -0.00270579      -0.00076144
O        4.80023848       4.27379054      12.23008024        3       0.00025256       0.00042781      -0.23044176
O        6.31832854       3.39739665       7.76818360        1      -0.00107903      -0.00036907      -0.00163259
C        3.28663728       5.14807452       9.99516450        2      -0.00060884      -0.00056342       0.00628620
Ti       3.28639366       6.90183620       8.71091723        0       0.00229036      -0.00291486      -0.00297925
Ti       4.79606710       6.01918070      11.29635998        0       0.00190639       0.00079133       0.00069899
O        3.28671964       6.89519029      12.23008024        3      -0.00165942       0.00371803      -0.22813166
O        4.80680836       6.02603530       7.76808766        1       0.00222995       0.00096375       0.00107083
C        1.78016275       7.76990988       9.99541594        2       0.00100692      -0.00153219       0.00269241
Ti       1.76866676       9.52343586       8.70558292        0      -0.00127264      -0.00059421       0.00160085
Ti       3.28614753       8.65387034      11.31133879        0       0.00012386       0.00068049      -0.00492534
O        1.79193491       9.52992267      12.23008024        3       0.00099264      -0.00271165      -0.27792076
O        3.28594167       8.64889055       7.76869700        1       0.00296196      -0.00138409      -0.00294769
C        9.34626243      -0.09858808       9.99611118        2      -0.00040004       0.00288554       0.00322806
Ti       9.34620278       1.64888621       8.71252230        0       0.00109731      -0.00045114       0.00253467
Ti      10.86199979       0.77398537      11.30743763        0       0.00136319      -0.00110356      -0.00296392
O        9.34630724       1.64880523      12.23008024        3      -0.00010616       0.00054628      -0.20758239
O       10.86128409       0.77468875       7.76716075        1       0.00136692      -0.00242990      -0.00231625
C        7.83279100       2.52258399       9.99591683        2       0.00336012      -0.00107080       0.00115601
Ti       7.83488772       4.27390213       8.70508945        0      -0.00131764       0.00130611       0.00105949
Ti       9.34635584       3.39889223      11.30689577        0      -0.00142824       0.00340344       0.00099919
O        7.82827296       4.24991969      12.23008024        3      -0.00060054      -0.00027792      -0.28335821
O        9.34676124       3.39784669       7.76699388        1      -0.00256931       0.00330471      -0.00138008
C        6.31030735       5.14111414       9.99488818        2      -0.00362085      -0.00298052       0.00182400
Ti       6.31050262       6.89376659       8.69690519        0      -0.00014342       0.00079299       0.00217348
Ti       7.81018889       6.02198945      11.26804263        0      -0.00325197      -0.00083482      -0.00268372
O        6.29988676       6.88731927      12.23008024        3      -0.00181493       0.00047338      -0.20667376
O        7.83744678       6.03552897       7.78774363        1      -0.00192004       0.00276580      -0.00027151
C        4.79264926       7.76997202       9.99522080        2      -0.00312290      -0.00097323       0.00271473
Ti       4.80377286       9.52368686       8.70520975        0       0.00005167      -0.00050419       0.00278248
Ti       6.30576126       8.62807992      11.26808081        0       0.00087363      -0.00242502      -0.00367382
O        4.78014215       9.52995500      12.23008024        3       0.00072649      -0.00059987      -0.27910242
O        6.33077731       8.64543714       7.78779023        1       0.00014367      -0.00414047      -0.00057147
C       -0.36035131       0.22681893      15.68402108       10      -0.00661607      -0.00259399       0.10417905
C        0.85014772       0.92626728      15.66872903       10       0.00517019       0.00017240       0.10001862
C       -1.57034516       2.32548730      15.68934178       10       0.00018295      -0.00529455       0.07870240
C       -0.35862040       3.02511488      15.67163135       10      -0.00006294      -0.00001884       0.09064238
C       -2.78277691       4.42266618      15.68402108       10       0.00019905      -0.00124818       0.10201208
C       -1.57187072       5.12155820      15.66872903       10      -0.00140989       0.00041184       0.09966315
C       -3.98958426       6.52691304      15.62091033       10       0.00286192      -0.00009887       0.11644945
C       -2.78280642       7.21161679      15.57908811       10      -0.00030753       0.00318660      -0.53814735
C       -5.20168773       8.62582755      15.62091033       10      -0.00274597      -0.00103877       0.11741930
C       -4.00580794       9.32904549      15.57908811       10       0.00528407      -0.00157016      -0.50738354
C        2.06513096       0.22011276      15.62091033       10      -0.00042732      -0.00054408       0.11775570
C        3.27726164       0.92568069      15.58883165       10      -0.00138956      -0.00038822       0.26932273
C        0.85320431       2.32413382      15.65768606       10      -0.00123603      -0.00340726       0.05399366
C        2.06501537       3.02381430      15.63577165       10      -0.00064208       0.00171893       0.04862710
C       -0.35984135       4.42508836      15.65768606       10      -0.00144245       0.00161209       0.05534146
C        0.85220077       5.12437186      15.63577165       10       0.00039294      -0.00119635       0.04713581
C       -1.57606100       6.52689275      15.62091033       10      -0.00274648       0.00193849       0.11650109
C       -0.35883067       7.22340404      15.58883165       10       0.00161463       0.00052939       0.27035220
C       -2.78236836       8.62405538      15.12628245       10      -0.00240058       0.00114876       0.79752786
C       -1.55948035       9.32930198      15.57908811       10      -0.00171266      -0.00552444      -0.48926553
C        4.48942110       0.22020068      15.62091033       10       0.00012304       0.00253150       0.11834632
C        5.70437714       0.92623368      15.66872903       10      -0.00131418      -0.00118174       0.10003792
C        3.27722119       2.32166338      15.62116536       10       0.00071368       0.00043473       0.00679670
C        4.48948240       3.02372229      15.63577165       10      -0.00217866       0.00270072       0.04833023
C        2.06449636       4.42386392      15.63309004       10       0.00089383       0.00276925       0.08584850
C        3.27718871       5.12394831      15.62808927       10      -0.00011836      -0.00032761       0.08651482
C        0.85006449       6.52521727      15.62116536       10       0.00345263       0.00027793       0.00652527
C        2.06430526       7.22381662      15.63577165       10       0.00205589       0.00061638       0.04654489
C       -0.36378786       8.62585253      15.62091033       10       0.00059562       0.00152696       0.11811983
C        0.85523679       9.32485388      15.66872903       10      -0.00000160      -0.00235491       0.09924648
C        6.91488517       0.22665699      15.68402108       10       0.00257545       0.00630663       0.10550337
C        8.12629881       0.92610725      15.69095960       10       0.00052918       0.00108335       0.08006904
C        5.70128805       2.32399412      15.65768606       10       0.00099419       0.00149214       0.05354366
C        6.91308173       3.02498886      15.67163135       10       0.00142489       0.00222107       0.09124292
C        4.48986725       4.42379654      15.63309004       10       0.00038467       0.00212350       0.08496089
C        5.70216541       5.12426832      15.63577165       10      -0.00074662       0.00072762       0.04605647
C        3.27710280       6.52417065      15.63309004       10       0.00067629       0.00091587       0.08351828
C        4.48987873       7.22381230      15.63577165       10       0.00100160       0.00054146       0.04576977
C        2.06412068       8.62314948      15.65768606       10       0.00396709       0.00303397       0.05470299
C        3.27714712       9.32215593      15.67163135       10       0.00224536      -0.00068044       0.09220669
C        9.33728528       0.22518810      15.68934178       10      -0.00275904       0.00144513       0.08206325
C       10.54815777       0.92616917      15.69095960       10       0.00280460       0.00349094       0.07990562
C        8.12482713       2.32536176      15.68934178       10       0.00076878      -0.00028098       0.07988087
C        9.33724738       3.02373256      15.69095960       10      -0.00194096       0.00226882       0.07937477
C        6.91426387       4.42501117      15.65768606       10       0.00219472       0.00203809       0.05585593
C        8.12631516       5.12149899      15.66872903       10      -0.00058318       0.00233324       0.09915667
C        5.70413282       6.52515007      15.62116536       10       0.00047614       0.00147480       0.00656220
C        6.91312285       7.22330087      15.58883165       10      -0.00254614       0.00313170       0.27119593
C        4.49021339       8.62317870      15.65768606       10      -0.00211146       0.00203615       0.05550439
C        5.69914181       9.32484764      15.66872903       10       0.00598764       0.00196690       0.09893928
O       -2.77855897       8.63405839      13.73834619       11      -0.00261653      -0.00433417      -0.00741820
