130
Lattice="12.12 0.0 0.0 -6.06 10.496227893867395 0.0 0.0 0.0 40.0" Properties=species:S:1:pos:R:3:tags:I:1:forces:R:3 energy=-1200.1739485356456 stress="0.002701701424372281 1.1897849434511211e-07 -1.7422921868687285e-07 1.1897849434511211e-07 0.0027017129001242566 1.4647364023936096e-07 -1.7422921868687285e-07 1.4647364023936096e-07 0.00299706496056207" pbc="T T F"
C       -0.00000979      -0.00000120      10.00358425        2      -0.00009571       0.00005961       0.00234476
Ti       0.00000626       1.74937069       8.71081888        0      -0.00000399      -0.00005802       0.00356057
Ti       1.51531912       0.87478841      11.29126254        0       0.00028070       0.00020851       0.00210410
O       -0.00004269       1.74926715      12.23008024        3      -0.00021124       0.00092994      -0.26891983
O        1.51475691       0.87460769       7.77075779        1      -0.00065836      -0.00032675       0.00359676
C       -1.51512626       2.62396737      10.00308538        2      -0.00034905       0.00032235       0.00107579
Ti      -1.51492192       4.37343564       8.70976788        0       0.00003938      -0.00020364       0.00114278
Ti      -0.00006556       3.49990058      11.29143728        0      -0.00006984       0.00024103       0.00191840
O       -1.51586104       4.37537631      12.23008024        3      -0.00006029       0.00042870      -0.27768384
O        0.00005515       3.49824603       7.77047976        1      -0.00013342      -0.00129621       0.00208358
C       -3.03018939       5.24802487      10.00149809        2       0.00003760       0.00010777      -0.00029028
Ti      -3.02992386       6.99757239       8.70957523        0      -0.00008519       0.00008694       0.00088586
Ti      -1.51344957       6.12376240      11.28866507        0       0.00028300       0.00020311      -0.00013164
O       -3.02871395       6.99606993      12.23008024        3       0.00029731      -0.00031105      -0.28078424
O       -1.51507971       6.12266930       7.76987604        1      -0.00068058      -0.00032308       0.00002405
C       -4.54517083       7.87216890      10.00287073        2       0.00006219      -0.00031338       0.00090004
Ti      -4.54498003       9.62153120       8.71074071        0      -0.00016877       0.00016140       0.00348823
Ti      -3.02881721       8.74618796      11.29123740        0      -0.00012066      -0.00007240       0.00166148
O       -4.54500070       9.62147423      12.23008024        3       0.00048263      -0.00043493      -0.26972437
O       -3.03042638       8.74718119       7.77031633        1      -0.00110940       0.00061095       0.00196858
C        3.02991944       0.00011917      10.00315047        2       0.00023027       0.00002237       0.00118438
Ti       3.02998527       1.74936427       8.71047006        0      -0.00004802       0.00017075       0.00236036
Ti       4.54562206       0.87359249      11.29120390        0       0.00057458       0.00006765       0.00142958
O        3.03175697       1.75046870      12.23008024        3       0.00090193       0.00030866      -0.26067909
O        4.54453529       0.87467352       7.77022096        1      -0.00070661       0.00006279       0.00101616
C        1.51505483       2.62397401      10.00325938        2       0.00029502       0.00029550       0.00137519
Ti       1.51492539       4.37341186       8.70991841        0      -0.00002353      -0.00030851       0.00092424
Ti       3.02972153       3.49975082      11.29115902        0       0.00052456       0.00053232       0.00138410
O        1.51544052       4.37543592      12.23008024        3       0.00016953       0.00055553      -0.27893530
O        3.02967793       3.49839466       7.77028481        1      -0.00033582      -0.00073694       0.00097617
C       -0.00007828       5.24765825      10.00141072        2       0.00000591       0.00040621      -0.00029672
Ti       0.00001915       6.99751178       8.70890945        0       0.00003546      -0.00010581      -0.00156391
Ti       1.51373494       6.12361688      11.28848715        0      -0.00010036       0.00024409      -0.00076078
O        0.00041182       6.99829442      12.23008024        3       0.00023921      -0.00022769      -0.29419939
O        1.51508225       6.12259303       7.76992154        1       0.00036550      -0.00036273      -0.00024381
C       -1.51545864       7.87231168      10.00108740        2       0.00024952      -0.00011168      -0.00020656
Ti      -1.51507483       9.62150923       8.70969350        0      -0.00023825       0.00011978       0.00095325
Ti       0.00006404       8.74556662      11.28795391        0      -0.00005107      -0.00027914      -0.00054275
O       -1.51309838       9.62063378      12.23008024        3       0.00048693      -0.00014574      -0.28363653
O       -0.00006445       8.74700542       7.76981334        1      -0.00019557       0.00064657      -0.00026963
C        6.05994639       0.00031546      10.00150722        2       0.00006571      -0.00026829      -0.00033669
Ti       6.06000602       1.74906246       8.70897371        0      -0.00005901       0.00002374      -0.00017752
Ti       7.57443532       0.87349174      11.29097660        0      -0.00049495      -0.00005509       0.00130461
O        6.06056787       1.75025504      12.23008024        3      -0.00030515      -0.00008873      -0.27282219
O        7.57532598       0.87464272       7.77009089        1       0.00069132       0.00023536       0.00072278
C        4.54492800       2.62403065      10.00173620        2       0.00044772       0.00031780      -0.00033137
Ti       4.54476190       4.37359423       8.70888326        0      -0.00008357       0.00003369      -0.00048834
Ti       6.05990688       3.49854776      11.28699367        0       0.00015134      -0.00003442      -0.00145234
O        4.54646144       4.37375767      12.23008024        3      -0.00020058       0.00007801      -0.27153869
O        6.05989118       3.49867678       7.76967353        1       0.00012511      -0.00007386      -0.00084654
C        3.03017898       5.24796349      10.00163506        2       0.00003929       0.00013407      -0.00020698
Ti       3.02991483       6.99758479       8.70958717        0       0.00013882       0.00002817       0.00033754
Ti       4.54389482       6.12287966      11.29083403        0      -0.00005378      -0.00024449       0.00102921
O        3.02834427       6.99647213      12.23008024        3      -0.00008429      -0.00026516      -0.28528536
O        4.54504610       6.12308529       7.77005586        1       0.00048696       0.00060283       0.00054494
C        1.51538217       7.87234471      10.00083252        2      -0.00033417      -0.00016401      -0.00058582
Ti       1.51506478       9.62147289       8.70952356        0       0.00012152       0.00009974       0.00049887
Ti       3.02860084       8.74611143      11.29076322        0      -0.00030951      -0.00004215       0.00123544
O        1.51314494       9.62048778      12.23008024        3      -0.00025316      -0.00006345      -0.28736958
O        3.03042879       8.74711223       7.77024440        1       0.00113213       0.00077628       0.00143244
C        9.09010933       0.00016364      10.00287485        2      -0.00043467       0.00003897       0.00076832
Ti       9.09004730       1.74932010       8.71012686        0      -0.00008022       0.00013953       0.00247864
Ti      10.60444240       0.87469348      11.29123203        0      -0.00046784       0.00015765       0.00251346
O        9.08790960       1.75066519      12.23008024        3      -0.00076352       0.00034168      -0.26253623
O       10.60535913       0.87458528       7.77065225        1       0.00057440      -0.00022045       0.00336808
C        7.57501703       2.62404788      10.00135797        2      -0.00042564       0.00027117      -0.00035760
Ti       7.57516506       4.37354581       8.70859163        0      -0.00004171       0.00003035      -0.00050315
Ti       9.09004194       3.49967842      11.29079943        0      -0.00047930       0.00029158       0.00129893
O        7.57366335       4.37320335      12.23008024        3      -0.00008657       0.00021667      -0.27001216
O        9.09032603       3.49845099       7.77007779        1       0.00023678      -0.00062099       0.00086060
C        6.05998607       5.24816065      10.00114108        2      -0.00000798      -0.00033029      -0.00050088
Ti       6.05996651       6.99759752       8.70992813        0      -0.00009635      -0.00004262       0.00202988
Ti       7.57590354       6.12273222      11.29046278        0       0.00014852      -0.00045676       0.00083978
O        6.06005527       6.99487801      12.23008024        3       0.00013410      -0.00053591      -0.26401105
O        7.57491094       6.12316783       7.76996973        1      -0.00032952       0.00057088       0.00065879
C        4.54518499       7.87221075      10.00279520        2      -0.00019267      -0.00038199       0.00080571
Ti       4.54497810       9.62152485       8.71061565        0       0.00012466       0.00015386       0.00337484
Ti       6.05976995       8.74659744      11.29128544        0      -0.00011789      -0.00042717       0.00229732
O        4.54474654       9.62139992      12.23008024        3      -0.00100280      -0.00050167      -0.27068495
O        6.06004149       8.74727714       7.77058213        1       0.00004865       0.00079710       0.00330165
C        0.04496297       0.06750949      15.31429077       10       0.00790891       0.00507724       0.12362943
C        1.25700623       0.76728384      15.31429077       10      -0.00646580       0.00059930       0.05530145
C       -1.16688449       2.16683089      15.31429077       10      -0.00369325       0.00605856       0.09846858
C        0.04503089       2.86627440      15.31429077       10       0.00014428       0.00233743       0.07286761
C       -2.37899592       4.26617161      15.31429077       10      -0.00469443       0.00234325       0.09231611
C       -1.16734200       4.96551362      15.31429077       10       0.00083052       0.00046206       0.11044711
C       -3.59089049       6.36519606      15.31429077       10      -0.00462493       0.00423113       0.09316024
C       -2.37951550       7.06499865      15.31429077       10       0.00283242      -0.00312825       0.11347910
C       -4.80295650       8.46443182      15.31429077       10       0.00691754       0.00340483       0.09591120
C       -3.59121518       9.16440072      15.31429077       10      -0.00468312      -0.00025938       0.07788117
C        2.46909052       0.06751875      15.31429077       10       0.00006200      -0.00428670       0.09412382
C        3.68095258       0.76755604      15.31429077       10       0.00494232       0.00479931       0.07082408
C        1.25701864       2.16688200      15.31429077       10       0.00136343      -0.00059395       0.09669634
C        2.46935125       2.86632411      15.31429077       10       0.00194030       0.00002130       0.06734902
C        0.04500413       4.26635641      15.31429077       10       0.00258387      -0.00085575       0.06359326
C        1.25727164       4.96552951      15.31429077       10      -0.00047825      -0.00242479       0.11352278
C       -1.16704046       6.36541060      15.31429077       10       0.00481308       0.00208315       0.04373139
C        0.04483794       7.06499332      15.31429077       10       0.00045430      -0.00244542       0.12354440
C       -2.37876189       8.46449779      15.31429077       10       0.00190293      -0.00122967       0.05891953
C       -1.16710521       9.16453857      15.31429077       10       0.00184238       0.00617134       0.11695792
C        4.89325384       0.06753869      15.31429077       10      -0.00155338      -0.00657240       0.08046072
C        6.10507311       0.76784655      15.31429077       10       0.00152314       0.00317393       0.10159313
C        3.68140212       2.16686688      15.31429077       10      -0.00273299       0.00026060       0.10975574
C        4.89350954       2.86676822      15.31429077       10      -0.00017807      -0.00076563       0.07708490
C        2.46912805       4.26620662      15.31429077       10      -0.00111933       0.00045911       0.08628519
C        3.68156640       4.96546613      15.31429077       10       0.00115943      -0.00052441       0.09552814
C        1.25675194       6.36542378      15.31429077       10       0.00026079       0.00080326       0.03941264
C        2.46924125       7.06490237      15.31429077       10       0.00275783      -0.00054073       0.11725165
C        0.04501051       8.46432678      15.31429077       10      -0.00146519      -0.00315459       0.03768704
C        1.25705295       9.16446342      15.31429077       10       0.00158888       0.00646871       0.11749637
C        7.31691030       0.06745997      15.31429077       10      -0.00184334      -0.00631868       0.08096561
C        8.52912704       0.76753839      15.31429077       10      -0.00169117       0.00113065       0.07533555
C        6.10527364       2.16685841      15.31429077       10      -0.00038044       0.00229507       0.11253991
C        7.31704118       2.86682562      15.31429077       10      -0.00470370      -0.00219571       0.08084468
C        4.89322786       4.26603516      15.31429077       10       0.00045424       0.00232289       0.11225345
C        6.10520086       4.96549150      15.31429077       10      -0.00253088       0.00092082       0.08619312
C        3.68085456       6.36517456      15.31429077       10      -0.00195277       0.00008139       0.08704843
C        4.89330800       7.06480447      15.31429077       10      -0.00112845       0.00056925       0.07438666
C        2.46875969       8.46439785      15.31429077       10      -0.00486111      -0.00479408       0.05258333
C        3.68125173       9.16428430      15.31429077       10       0.00025557       0.00425462       0.08474800
C        9.74090268       0.06737712      15.31429077       10       0.00433252       0.00004722       0.09141930
C       10.95318536       0.76734551      15.31429077       10      -0.00664548      -0.00330116       0.05257718
C        8.52894145       2.16674395      15.31429077       10      -0.00279440       0.00304356       0.10818468
C        9.74073321       2.86640693      15.31429077       10       0.00501906      -0.00439600       0.06751686
C        7.31706354       4.26605357      15.31429077       10      -0.00061900      -0.00063770       0.11496608
C        8.52850154       4.96557023      15.31429077       10       0.00480152      -0.00237346       0.09071825
C        6.10496372       6.36506208      15.31429077       10      -0.00010831      -0.00241998       0.10713222
C        7.31661826       7.06490404      15.31429077       10       0.00371212      -0.00602107       0.07050433
C        4.89282168       8.46441561      15.31429077       10       0.00620811      -0.00075049       0.09139162
C        6.10511345       9.16437621      15.31429077       10      -0.00774143      -0.00512642       0.05226653
