132
Lattice="12.12 0.0 0.0 -6.06 10.496227893867395 0.0 0.0 0.0 40.0" Properties=species:S:1:pos:R:3:tags:I:1:forces:R:3 energy=-1208.318991457321 stress="0.0027565643766549585 -5.044099869719224e-08 -3.507079202369824e-07 -5.044099869719224e-08 0.0027271609100805822 4.093656090451258e-07 -3.507079202369824e-07 4.093656090451258e-07 0.0029465856589417703" pbc="T T F"
C       -0.93586162      -0.15626655       9.93478287        2      -0.00071961      -0.00009837       0.00294515
Ti      -0.93554937       1.60341995       8.70533767        0       0.00078880      -0.00152974      -0.00140583
Ti       0.61432202       0.71609376      11.27314381        0       0.00175475      -0.00382093       0.00057097
O       -0.93726260       1.38898843      12.23159545        3       0.00906698      -0.00171568      -0.91040829
O        0.57724149       0.75634744       7.78166910        1      -0.00073585       0.00185108       0.00236447
C       -2.43438440       2.49681382      10.03000875        2      -0.00343450       0.00072264      -0.00042149
Ti      -2.46279718       4.24738535       8.70408901        0       0.00306841       0.00639800       0.00175331
Ti      -0.93598838       3.40914046      11.35011614        0      -0.00141099      -0.00235289       0.00086927
O       -2.56898997       4.32557342      12.23159545        3       0.00171373      -0.00122160      -0.48758166
O       -0.93538389       3.36402464       7.80439176        1      -0.00195466       0.00011740       0.00047833
C       -3.97320840       5.11965781       9.94806631        2      -0.00317226       0.00348796      -0.00082109
Ti      -3.97115607       6.86023062       8.68771606        0       0.00150149       0.00765489      -0.00285850
Ti      -2.45767840       6.00725563      11.28252316        0      -0.00500277       0.00237257       0.00040913
O       -3.98506796       6.87197852      12.23159545        3      -0.00078382      -0.00211920      -0.22043769
O       -2.43827840       5.97939950       7.77864676        1      -0.00046666      -0.00235873       0.00362930
C       -5.48217807       7.73540142       9.94852620        2       0.00293315      -0.00210443      -0.00160421
Ti      -5.48687866       9.47856627       8.68117905        0      -0.00069686       0.00232847       0.00023785
Ti      -3.97497890       8.60529765      11.28310802        0       0.00339795      -0.00330913       0.00187285
O       -5.47968746       9.46097197      12.23159545        3       0.00184307      -0.00129650      -0.26815942
O       -3.96546822       8.61168160       7.75379961        1      -0.00236352       0.00192793       0.00185313
C        2.10187835      -0.14372132       9.96115304        2      -0.00235959       0.00313219      -0.00018602
Ti       2.10474718       1.61285409       8.70266784        0      -0.00162785      -0.00094724      -0.00029982
Ti       3.61978186       0.73855647      11.28018564        0      -0.00035740       0.00347574       0.00004684
O        2.10692487       1.60360264      12.23159545        3       0.00085026       0.00137606      -0.22454688
O        3.60056081       0.74505050       7.76501836        1       0.00100094      -0.00198134       0.00006138
C        0.56227346       2.49716908      10.03072366        2       0.00015050      -0.00305083       0.00113343
Ti       0.59040226       4.24924144       8.70395383        0      -0.00107148      -0.00124692       0.00509267
Ti       2.09245749       3.36116048      11.29195863        0       0.00128747       0.00159520      -0.00260969
O        0.69688831       4.32654673      12.23159545        3      -0.00228854      -0.00151460      -0.48727287
O        2.07870502       3.35819981       7.78299759        1       0.00095116       0.00020766      -0.00026161
C       -0.93615737       5.10967429      10.02276527        2       0.00231163       0.00013538      -0.00488658
Ti      -0.93650902       6.87604961       8.70421637        0      -0.00034105      -0.00130325      -0.00293554
Ti       0.58664912       6.00816316      11.28198061        0      -0.00069791       0.00166097      -0.00080961
O       -0.93642490       6.89295142      12.23159545        3       0.00159157      -0.00145406      -0.22659899
O        0.56640215       5.98026908       7.77973525        1       0.00125698       0.00048875      -0.00370139
C       -2.45373883       7.74735513       9.95339066        2      -0.00216077       0.00032603      -0.00249807
Ti      -2.45531419       9.48303939       8.68280491        0       0.00452204       0.00267732       0.00051661
Ti      -0.93697274       8.62481278      11.29930984        0       0.00393300      -0.00406682      -0.00706581
O       -2.45194815       9.48385860      12.23159545        3       0.00274998       0.00284759      -0.25035467
O       -0.93586718       8.60776018       7.76310039        1      -0.00308741      -0.00079745       0.00551070
C        5.12348007      -0.13315222       9.96052166        2       0.00016141       0.00135787       0.00223735
Ti       5.12344373       1.61897895       8.68777232        0       0.00053810      -0.00450411       0.00064664
Ti       6.62723084       0.73983498      11.28098265        0      -0.00309213      -0.00117539      -0.00427119
O        5.12303489       1.61959635      12.23159545        3       0.00259482      -0.00111880      -0.20355911
O        6.64696944       0.74508427       7.76496618        1      -0.00235873       0.00104672       0.00184991
C        3.61282925       2.48545825       9.95918607        2       0.00383883       0.00086449       0.00116167
Ti       3.60939646       4.24054120       8.69396945        0       0.00311624      -0.00386182      -0.00134765
Ti       5.12399574       3.36915210      11.29344643        0      -0.00390260      -0.00724991       0.00036118
O        3.62430726       4.24685016      12.23159545        3       0.00232845       0.00006391      -0.19761996
O        5.12263778       3.36342039       7.76146321        1       0.00589576       0.00066434      -0.00172350
C        2.10147493       5.12088473       9.94876732        2      -0.00239924      -0.00031555      -0.00054592
Ti       2.09931244       6.86307384       8.68813573        0      -0.00390365      -0.00036860       0.00031111
Ti       3.61043013       5.98359366      11.29440645        0      -0.00551703       0.00007125      -0.00500339
O        2.11396636       6.87277149      12.23159545        3      -0.00425633      -0.00011732      -0.21442829
O        3.60731673       5.98440899       7.75735767        1       0.00273716       0.00054281      -0.00180208
C        0.58168490       7.74815899       9.95470528        2      -0.00155136       0.00085020      -0.00531023
Ti       0.58159875       9.48418496       8.68317160        0       0.00165872      -0.00003236      -0.00034431
Ti       2.10128811       8.60693895      11.28305620        0      -0.00155922      -0.00754835       0.00031930
O        0.57810900       9.48530136      12.23159545        3       0.00049851      -0.00316762      -0.24943215
O        2.09294339       8.61348806       7.75491971        1       0.00248830      -0.00110836      -0.00305175
C        8.14542993      -0.14245619       9.96168691        2       0.00164938      -0.00113457       0.00117791
Ti       8.14376247       1.61248105       8.70209404        0      -0.00398668      -0.00156666       0.00346520
Ti       9.63242532       0.71511831      11.27353550        0      -0.00125941       0.00348837      -0.00334573
O        8.14000903       1.60414044      12.23159545        3       0.00099230      -0.00175227      -0.22262727
O        9.67146885       0.75682770       7.78218501        1      -0.00228567      -0.00147363      -0.00226537
C        6.63443619       2.48546908       9.95891563        2      -0.00509817       0.00340152       0.00028935
Ti       6.63733761       4.23903044       8.69297275        0      -0.00245411       0.00081792      -0.00174340
Ti       8.15435847       3.36097669      11.29106887        0       0.00613363       0.00422742       0.00043897
O        6.62326501       4.24620840      12.23159545        3      -0.00052140       0.00193448      -0.20028971
O        8.16880243       3.35745017       7.78180497        1      -0.00233308       0.00262189       0.00263621
C        5.12378740       5.11196208       9.95372657        2       0.00186474      -0.00347461       0.00369740
Ti       5.12405733       6.85790044       8.68291743        0       0.00060884       0.00200495       0.00296767
Ti       6.63826932       5.98229314      11.29181603        0       0.00389255       0.00802448       0.00325690
O        5.12476461       6.85377531      12.23159545        3      -0.00419035      -0.00113076      -0.23727524
O        6.63961192       5.98333716       7.75614320        1       0.00032314       0.00196126       0.00439239
C        3.60997413       7.73594669       9.94783216        2      -0.00173107       0.00093891       0.00553726
Ti       3.61585039       9.47899132       8.68208807        0      -0.00466779      -0.00013039      -0.00221712
Ti       5.12386764       8.60596768      11.27930568        0       0.00113295      -0.00253482       0.00067075
O        3.60684473       9.46042852      12.23159545        3       0.00036109       0.00131461      -0.26490315
O        5.12361202       8.60791937       7.74675277        1       0.00354263      -0.00282905       0.00630697
C        1.49941850       0.28869973      15.43198004       10      -0.00466330      -0.00221024       0.07630395
C        2.70563913       0.99390596      15.44036827       10      -0.00247443       0.00270602       0.07035071
C        0.30554158       2.37802038      15.40760937       10       0.00257652      -0.00087522       0.53628037
C        1.49297264       3.09027761      15.41524811       10       0.00235211       0.00138261       0.10030293
C       -0.93488972       4.52745642      15.40760382       10      -0.00069896       0.00459830       0.30717124
C        0.27600707       5.19909734      15.41524555       10       0.00096450       0.00351911       0.09201622
C       -2.14825809       6.60284398      15.43197949       10      -0.00232340       0.00034565       0.08649396
C       -0.93476341       7.29577617      15.44036807       10      -0.00062127      -0.00312534       0.09719515
C       -3.35783729       8.69168731      15.43008710       10      -0.00588166      -0.00211076       0.09020093
C       -2.14619051       9.39247873      15.44137676       10      -0.00056264       0.00065221       0.08050230
C        3.91660504       0.29402852      15.44240178       10      -0.00215623       0.00064413       0.08991573
C        5.12504238       0.99513837      15.44137667       10       0.00130865       0.00196056       0.07784059
C        2.71154974       2.39066747      15.43198025       10       0.00183218       0.00220688       0.07598415
C        3.91607864       3.09483260      15.42292012       10       0.00181997       0.00016431       0.07574971
C        1.49300124       4.49647147      15.38912023       10      -0.00136563       0.00117386       0.04619470
C        2.70143850       5.19262125      15.40079018       10      -0.00162961      -0.00092632       0.05106797
C        0.27865607       6.60268678      15.43197949       10       0.00078924       0.00113352       0.08659103
C        1.49099756       7.29416497      15.42292022       10      -0.00018909       0.00096567       0.07865884
C       -0.93473606       8.69564313      15.44240199       10      -0.00101553      -0.00380120       0.12040154
C        0.27664372       9.39248538      15.44137676       10       0.00020729      -0.00010241       0.08073084
C        6.33354623       0.29406973      15.44240178       10       0.00443468       0.00023789       0.08991880
C        7.54447798       0.99400510      15.44036827       10       0.00486669       0.00202473       0.07049210
C        5.12504206       2.39496487      15.43008697       10       0.00129206       0.00200778       0.08636079
C        6.33403426       3.09485942      15.42292012       10       0.00002091       0.00077090       0.07589533
C        3.91494227       4.49365571      15.40903662       10      -0.00128978      -0.00160778       0.07442755
C        5.12509928       5.19396726      15.40624876       10       0.00053419      -0.00345527       0.12997700
C        2.70246599       6.59256897      15.40903652       10      -0.00143462      -0.00069726       0.07852897
C        3.91437889       7.29052575      15.40624865       10      -0.00081123       0.00021666       0.08157733
C        1.48832995       8.69155120      15.43008710       10       0.00073794       0.00030631       0.09037385
C        2.69944251       9.38787305      15.42291997       10      -0.00009877       0.00203554       0.06855619
C        8.75076414       0.28873965      15.43198004       10       0.00291683      -0.00118394       0.07644535
C        9.96607122       0.99222521      15.41524792       10       0.00111366      -0.00322939       0.17419243
C        7.53863189       2.39079901      15.43198025       10      -0.00193293       0.00116598       0.07630627
C        8.75724148       3.09045711      15.41524811       10      -0.00317020       0.00007005       0.10037166
C        6.33527490       4.49369416      15.40903662       10       0.00173189      -0.00126959       0.07449538
C        7.54883178       5.19270772      15.40079018       10       0.00132752      -0.00058675       0.05130479
C        5.12512502       6.59131182      15.40317076       10       0.00080901      -0.00146679       0.06257483
C        6.33592585       7.29049942      15.40624865       10       0.00148749       0.00186173       0.08181183
C        3.91181065       8.68910308      15.40903635       10      -0.00015418       0.00145165       0.07549453
C        5.12516704       9.39044630      15.40078977       10      -0.00018239       0.00156221       0.03756480
C       11.18506499       0.28929255      15.38912018       10      -0.00050950      -0.00306992       0.06602088
C       12.40400699       0.99212316      15.41524792       10       0.00248717      -0.00193832       0.17415250
C        9.94465011       2.37817732      15.40760937       10      -0.00420203      -0.00355784       0.53513670
C       11.18508035       3.09906275      15.16325011       10       0.00152756       0.00168213      -0.33103455
C        8.75728457       4.49664551      15.38912023       10       0.00006391       0.00004596       0.04618071
C        9.97425535       5.19928445      15.41524555       10       0.00057750       0.00087100       0.09205424
C        7.54790494       6.59267205      15.40903652       10       0.00062461      -0.00098861       0.07846156
C        8.75938835       7.29437135      15.42292022       10       0.00025149      -0.00286157       0.07861573
C        6.33857915       8.68908375      15.40903635       10      -0.00159083       0.00154168       0.07556844
C        7.55089851       9.38788288      15.42291997       10       0.00108391       0.00134911       0.06867471
O       11.18547915       3.07542002      13.68183575       11       0.00115987       0.00225362      -0.00179868
H       11.18499839       2.07564020      13.35010426       12      -0.00317110       0.00006016       0.00110782
