132
Lattice="12.12 0.0 0.0 -6.06 10.496227893867395 0.0 0.0 0.0 40.0" Properties=species:S:1:pos:R:3:tags:I:1:forces:R:3 energy=-1210.8078569329998 stress="0.0028703971109065238 8.494686329730399e-07 -1.6577883967244168e-06 8.494686329730399e-07 0.002852840096679491 -2.2066385770218143e-06 -1.6577883967244168e-06 -2.2066385770218143e-06 0.002674555773831431" pbc="T T F"
C        0.00050766       0.00098245      10.00457478        2       0.00086642       0.00132920      -0.00288995
Ti       0.00257566       1.75234436       8.72014359        0      -0.00099977       0.00128266      -0.00540347
Ti       1.51426085       0.87944339      11.30968437        0      -0.00089008      -0.00185070      -0.00069522
O        0.00071148       1.74618214      12.23008024        3       0.00083668       0.00098264      -0.12571630
O        1.51341643       0.87847888       7.78044026        1       0.00255828      -0.00272821       0.00176020
C       -1.51637892       2.62827159      10.01722603        2       0.00055427       0.00192865       0.00122404
Ti      -1.51189594       4.37561843       8.72214989        0       0.00148950       0.00029913       0.00205611
Ti      -0.00541758       3.50271883      11.32231243        0       0.00277411      -0.00065895      -0.00154487
O       -1.49642877       4.40572293      12.23008024        3       0.00267118       0.00490335      -0.55089263
O       -0.00175927       3.50013446       7.78380169        1       0.00243691       0.00153816      -0.00192980
C       -3.02895740       5.24604911      10.01394903        2      -0.00047752      -0.00049703      -0.00343065
Ti      -3.02814390       7.00141414       8.72062841        0       0.00161087       0.00053035      -0.00261293
Ti      -1.51115578       6.12481379      11.31385223        0      -0.00005290      -0.00016353      -0.00243879
O       -3.03164449       7.00530239      12.23008024        3      -0.00086160       0.00053929      -0.06116652
O       -1.51587692       6.12199627       7.78325938        1       0.00174335       0.00118701      -0.00154165
C       -4.54348001       7.87471079      10.00395512        2      -0.00019610      -0.00166876      -0.00094005
Ti      -4.54356018       9.62377786       8.71700851        0       0.00215059      -0.00221181      -0.00006594
Ti      -3.02984750       8.75069775      11.30413615        0      -0.00294622       0.00088175      -0.00097221
O       -4.54480786       9.62414393      12.23008024        3      -0.00169627      -0.00092600      -0.09211859
O       -3.02993198       8.74673052       7.77749621        1      -0.00181156       0.00174448       0.00355549
C        3.03094153       0.00203867      10.00198508        2      -0.00034756      -0.00090083       0.00323582
Ti       3.03123197       1.75093224       8.71700538        0      -0.00104927       0.00059822       0.00179562
Ti       4.54319891       0.87723875      11.30457840        0       0.00145303       0.00161529      -0.00025352
O        3.03078637       1.75068201      12.23008024        3      -0.00217726      -0.00062662      -0.07560040
O        4.54609833       0.87865744       7.77720875        1       0.00001682      -0.00144296       0.00317379
C        1.51557298       2.62603237      10.00801028        2      -0.00077630      -0.00131931      -0.00114713
Ti       1.51577752       4.37529148       8.72063655        0      -0.00029846      -0.00026571      -0.00258756
Ti       3.03032360       3.50095101      11.30417541        0       0.00118754      -0.00330764      -0.00085339
O        1.52074318       4.37694933      12.23008024        3      -0.00117300       0.00010385      -0.06235475
O        3.03002351       3.50152460       7.78028861        1      -0.00073847      -0.00071805       0.00014905
C        0.00272407       5.25184859      10.00706000        2       0.00000180      -0.00114565      -0.00370639
Ti       0.00088718       6.99991085       8.71758938        0      -0.00083309      -0.00207709      -0.00078193
Ti       1.51843748       6.12555132      11.30401419        0      -0.00267216       0.00142286      -0.00108603
O        0.00507489       7.00381152      12.23008024        3       0.00082051       0.00034136      -0.05452293
O        1.51573572       6.12359821       7.77932700        1      -0.00238823      -0.00260067       0.00222491
C       -1.51443561       7.87767058      10.00258947        2      -0.00019922       0.00056271      -0.00101724
Ti      -1.51421664       9.62361548       8.71370390        0      -0.00152467      -0.00196156       0.00489876
Ti      -0.00028735       8.74872241      11.30509782        0       0.00114188       0.00437461      -0.00018253
O       -1.51559288       9.62429301      12.23008024        3      -0.00139956      -0.00066153      -0.09781359
O        0.00074225       8.74732383       7.77657873        1       0.00006352       0.00157842       0.00070843
C        6.05841617       0.00006839      10.00059556        2       0.00311820       0.00252559       0.00212582
Ti       6.06061922       1.75138360       8.71599433        0      -0.00100665      -0.00317667      -0.00041484
Ti       7.56377952       0.86593418      11.28737939        0       0.00518454       0.00326465      -0.00023904
O        6.05822788       1.74845622      12.23008024        3       0.00410890       0.00026119      -0.08257545
O        7.57786296       0.87979073       7.77878163        1      -0.00014429      -0.00254164       0.00043300
C        4.54583217       2.62533958      10.00414260        2       0.00067396      -0.00116108      -0.00107610
Ti       4.54562234       4.37535082       8.71729435        0       0.00052971      -0.00305460      -0.00005516
Ti       6.06198537       3.49892716      11.30855859        0       0.00188678       0.00055125       0.00062286
O        4.54497353       4.37576320      12.23008024        3       0.00014491      -0.00137487      -0.07932209
O        6.06362971       3.50087964       7.77968423        1      -0.00123239       0.00069909      -0.00031557
C        3.03148031       5.24971114      10.00454729        2       0.00061803       0.00030548       0.00308230
Ti       3.03138751       6.99836493       8.71469477        0      -0.00175297      -0.00010401       0.00199906
Ti       4.54602579       6.12410871      11.30263717        0       0.00002642      -0.00161128      -0.00090965
O        3.03280265       6.99958134      12.23008024        3       0.00096842      -0.00105337      -0.09554728
O        4.54697734       6.12404386       7.77834953        1       0.00059837      -0.00155488       0.00099418
C        1.51611725       7.87359973      10.00266667        2      -0.00040141      -0.00051836       0.00356390
Ti       1.51700363       9.62272765       8.71247565        0      -0.00189751       0.00082066       0.00183396
Ti       3.03077763       8.74754789      11.30537706        0       0.00025286       0.00028988       0.00108366
O        1.51574386       9.61840241      12.23008024        3       0.00345831       0.00535625      -0.10471471
O        3.03143317       8.74784203       7.77571935        1       0.00097300       0.00123533       0.00115857
C        9.09095483      -0.00245115       9.99877085        2       0.00109387       0.00482911       0.00204605
Ti       9.09093865       1.75170650       8.72170858        0       0.00255258       0.00048409      -0.00004825
Ti      10.61342861       0.86497016      11.28202620        0       0.00449725       0.00213406      -0.00157802
O        9.07436049       1.70722004      12.23008024        3      -0.00018477       0.00270954      -0.08650247
O       10.60628429       0.88066438       7.78020160        1      -0.00143045      -0.00373979      -0.00276844
C        7.57972662       2.62818634      10.00927299        2       0.00399169       0.00180003       0.00350040
Ti       7.57522733       4.37489701       8.71415111        0      -0.00152192       0.00178194       0.00514081
Ti       9.08871374       3.52025700      11.28352310        0       0.00325564       0.00073849       0.00444549
O        7.57065275       4.37603793      12.23008024        3       0.00200815       0.00062649      -0.09471672
O        9.09307115       3.50081051       7.77937852        1      -0.00096966       0.00040491       0.00258725
C        6.06143000       5.25014975      10.00517602        2      -0.00018829      -0.00123956       0.00061822
Ti       6.06196175       7.00000245       8.71708608        0      -0.00119804      -0.00133794       0.00079526
Ti       7.57392921       6.12363739      11.31003904        0       0.00039995      -0.00104773       0.00116938
O        6.06064904       7.00136224      12.23008024        3      -0.00377498      -0.00156811      -0.06889238
O        7.57885917       6.12321332       7.78119695        1      -0.00233501      -0.00090898      -0.00040354
C        4.54681571       7.87353358      10.00287076        2      -0.00194422      -0.00377694       0.00240055
Ti       4.54505312       9.62295424       8.71194506        0       0.00031963      -0.00187150      -0.00305446
Ti       6.06039092       8.74821736      11.30696852        0      -0.00099933      -0.00155424       0.00062874
O        4.54488059       9.61825841      12.23008024        3      -0.00173634       0.00318094      -0.11373969
O        6.06168999       8.74867539       7.77801033        1      -0.00145769      -0.00036800       0.00016544
C        0.05821090       0.07066006      15.99888589       10       0.00158297      -0.00241572      -0.00733420
C        1.26686549       0.77355611      16.00727412       10      -0.00286146      -0.00378842       0.07295698
C       -1.13686304       2.15830750      15.97451522       10       0.00076899      -0.00324562       0.55709462
C        0.05439855       2.87151430      15.98215396       10       0.00048968       0.00115126       0.09284776
C       -2.37510772       4.30282915      15.97450967       10      -0.00096618       0.00134032       0.70782487
C       -1.16317911       4.97753828      15.98215140       10       0.00178724       0.00443171       0.03745260
C       -3.58558058       6.38159094      15.99888534       10      -0.00408237       0.00675841       0.01398852
C       -2.37315986       7.07714409      16.00727392       10       0.00096453      -0.00073161       0.04113836
C       -4.79621309       8.47252762      15.99699295       10       0.00522026       0.00294505       0.02667705
C       -3.58432753       9.17252240      16.00828261       10       0.00316521      -0.00127852       0.03229477
C        2.47757677       0.07475416      16.00930763       10       0.00269901      -0.00114936       0.00843588
C        3.68770852       0.77535486      16.00828252       10       0.00216560       0.00280547       0.02319421
C        1.26997156       2.17180463      15.99888610       10       0.00000443      -0.00254958       0.00623750
C        2.47700689       2.87466269      15.98982597       10      -0.00240741      -0.00022687       0.02884577
C        0.05063288       4.27396218      15.95602608       10       0.00248306       0.00136019       0.21129413
C        1.26116884       4.97302714      15.96769603       10       0.00363246      -0.00153704      -0.03657645
C       -1.16124866       6.38044803      15.99888534       10       0.00426958       0.00487256       0.04574852
C        0.05106287       7.07412990      15.98982607       10       0.00529960      -0.00039559       0.00195954
C       -2.37243303       8.47483578      16.00930784       10       0.00078658      -0.00174678       0.04438369
C       -1.16044701       9.17254259      16.00828261       10      -0.00251354       0.00034680       0.01055308
C        4.89800510       0.07478239      16.00930763       10      -0.00004685      -0.00228010       0.03153897
C        6.10865049       0.77428803      16.00727412       10      -0.00062449      -0.00254260       0.04517397
C        3.68783832       2.17474956      15.99699282       10      -0.00021347       0.00416237       0.03084443
C        4.89836259       2.87486083      15.98982597       10      -0.00005237      -0.00140925       0.01957644
C        2.47476545       4.27397906      15.97594247       10       0.00400265       0.00048423       0.01329248
C        3.68687517       4.97342759      15.97315461       10       0.00002288       0.00311758       0.04260476
C        1.26187432       6.37309365      15.97594237       10       0.00387259      -0.00007889       0.04716607
C        2.47409706       7.07265956      15.97315450       10       0.00031269      -0.00071659       0.03348251
C        0.05089735       8.47256867      15.99699295       10      -0.00229188      -0.00018210       0.08156905
C        1.26246178       9.17123240      15.98982582       10      -0.00581388       0.00110371       0.00586477
C        7.31755802       0.07196501      15.99888589       10       0.00110186      -0.00407684       0.04445483
C        8.53172806       0.77479323      15.98215377       10      -0.00428403      -0.00123471       0.05680435
C        6.10577596       2.17250388      15.99888610       10      -0.00102959      -0.00200334       0.02436917
C        7.32236680       2.87187538      15.98215396       10      -0.00565169       0.00184972       0.05827841
C        4.89926463       4.27408165      15.97594247       10      -0.00222030      -0.00033159       0.01949430
C        6.11287525       4.97311375      15.96769603       10      -0.00408438      -0.00157984      -0.02374893
C        3.68640025       6.37293409      15.97007661       10       0.00218440       0.00594606       0.01814427
C        4.89893866       7.07284315      15.97315450       10       0.00079687      -0.00125747       0.04355061
C        2.47465601       8.47235373      15.97594220       10      -0.00469704       0.00215830       0.02825658
C        3.68696252       9.17357318      15.96769562       10      -0.00202145      -0.00186027      -0.00524873
C        9.74707001       0.07529829      15.95602603       10       0.00014236      -0.00085975       0.16541903
C       10.96379851       0.77247495      15.98215377       10      -0.00137587      -0.00456908       0.09780781
C        8.51222761       2.16099379      15.97451522       10      -0.00396269      -0.00294026       0.40855663
C        9.74595686       2.87124238      15.73015596       10      -0.00144855      -0.00547508      -1.73646382
C        7.32341644       4.27454955      15.95602608       10      -0.00346785       0.00134990       0.18851349
C        8.53608804       4.97873563      15.98215140       10      -0.00239215       0.00432139       0.08913231
C        6.11121423       6.37348829      15.97594237       10      -0.00151764      -0.00096721       0.01043185
C        7.32231263       7.07483267      15.98982607       10      -0.00252318      -0.00218944       0.03119480
C        4.89928014       8.47212228      15.97594220       10       0.00532369       0.00239882       0.00408053
C        6.11219528       9.17053739      15.98982582       10       0.00129309      -0.00414210       0.04052917
O        9.85318307       2.94369261      14.24731076       11      -0.00283604      -0.00133136      -0.00612348
H        9.45119118       2.19989390      13.71314282       12      -0.00433913       0.00774236       0.00039984
