130
Lattice="12.12 0.0 0.0 -6.06 10.496227893867395 0.0 0.0 0.0 40.0" Properties=species:S:1:pos:R:3:tags:I:1:forces:R:3 energy=-1199.6853410254414 stress="0.002815803999428836 -2.848260825291798e-07 6.881239184792855e-07 -2.848260825291798e-07 0.002815991610909788 8.545391409434483e-07 6.881239184792855e-07 8.545391409434483e-07 0.00298151746392518" pbc="T T F"
C        0.00023417       0.00019308       9.97134894        2      -0.00016321      -0.00003930      -0.00610501
Ti      -0.00008270       1.74993493       8.69456804        0       0.00020919       0.00047018       0.00793337
Ti       1.51542171       0.87511153      11.28963780        0       0.00041116       0.00016319      -0.00111061
O        0.00035743       1.74916741      12.23159545        3      -0.00022698      -0.00040027      -0.20216562
O        1.51448865       0.87451481       7.77232922        1       0.00001584      -0.00000758      -0.00274313
C       -1.51489802       2.62394254       9.97182309        2      -0.00010133      -0.00061194      -0.00656824
Ti      -1.51459303       4.37472519       8.69309253        0      -0.00048781      -0.00027660       0.00821208
Ti       0.00015563       3.49638706      11.29169028        0       0.00029200       0.00103359      -0.00275254
O       -1.51659791       4.37478332      12.23159545        3      -0.00023179      -0.00017641      -0.17589770
O       -0.00002616       3.49758006       7.77135649        1       0.00014565       0.00028448      -0.00260215
C       -3.02922360       5.24844362       9.96899630        2       0.00017820       0.00043742      -0.00662615
Ti      -3.02860721       6.99744743       8.69324872        0      -0.00069515      -0.00060816       0.00783711
Ti      -1.51648238       6.12165164      11.29095930        0       0.00054398       0.00059068      -0.00309554
O       -3.02973374       6.99571675      12.23159545        3       0.00006179       0.00001353      -0.17271202
O       -1.51518734       6.12254757       7.76979551        1       0.00003894       0.00032880      -0.00275133
C       -4.54502097       7.87246770       9.97163065        2      -0.00045705       0.00063343      -0.00618782
Ti      -4.54449268       9.62107013       8.69417743        0       0.00015502       0.00027399       0.00769754
Ti      -3.03212780       8.74845510      11.29149540        0       0.00073717      -0.00022492      -0.00201577
O       -4.54514266       9.62209911      12.23159545        3      -0.00005506       0.00022637      -0.20448789
O       -3.03108213       8.74742534       7.77103819        1       0.00030984       0.00005811      -0.00292883
C        3.02982133       0.00044040       9.97105645        2      -0.00067044      -0.00003378      -0.00650077
Ti       3.03082687       1.74971058       8.69230177        0       0.00059523       0.00072654       0.00835680
Ti       4.54480294       0.87749210      11.28754007        0       0.00022821      -0.00000937      -0.00256093
O        3.03203138       1.75056618      12.23159545        3      -0.00029998       0.00000049      -0.18973136
O        4.54424612       0.87464790       7.77007773        1       0.00041080      -0.00001631      -0.00262924
C        1.51525493       2.62387131       9.97147514        2      -0.00038779      -0.00091840      -0.00701597
Ti       1.51468240       4.37470237       8.69313938        0       0.00101871      -0.00015765       0.00897509
Ti       3.03208040       3.49728727      11.28740260        0       0.00004537       0.00092884      -0.00311905
O        1.51667368       4.37474256      12.23159545        3       0.00037053       0.00004712      -0.17948236
O        3.02947851       3.49825367       7.77028977        1       0.00023998       0.00033031      -0.00253489
C        0.00011574       5.24712530       9.96701934        2      -0.00016483      -0.00049209      -0.00724736
Ti       0.00014087       6.99773748       8.69510233        0       0.00023599      -0.00019602       0.00813207
Ti       1.51608315       6.12151596      11.29255814        0      -0.00025043       0.00011770      -0.00413344
O        0.00025588       6.99811059      12.23159545        3       0.00024194       0.00018565      -0.15675123
O        1.51519100       6.12245923       7.76994281        1       0.00003188       0.00036685      -0.00241174
C       -1.51570088       7.87280701       9.96621039        2      -0.00035562       0.00040895      -0.00675240
Ti      -1.51413310       9.62062042       8.69334318        0       0.00023002       0.00108538       0.00791476
Ti      -0.00037147       8.74845771      11.29309559        0       0.00010211      -0.00012871      -0.00331387
O       -1.51309030       9.62226556      12.23159545        3       0.00017421       0.00000784      -0.17901682
O       -0.00008310       8.74716281       7.76990862        1       0.00012274       0.00010669      -0.00259182
C        6.05991755      -0.00005165       9.96802981        2       0.00013291      -0.00005513      -0.00650567
Ti       6.06013976       1.74857268       8.69121067        0      -0.00002772       0.00121765       0.00796833
Ti       7.57520826       0.87736159      11.28784066        0      -0.00018914      -0.00026785      -0.00211773
O        6.06040531       1.75132011      12.23159545        3       0.00039726       0.00024852      -0.15131207
O        7.57576422       0.87458969       7.77015823        1       0.00005889       0.00006222      -0.00244013
C        4.54451272       2.62377575       9.96909314        2       0.00029419      -0.00033480      -0.00727080
Ti       4.54452436       4.37394618       8.69123541        0       0.00071991      -0.00041416       0.00857310
Ti       6.06035023       3.49933244      11.29292942        0      -0.00009371       0.00029151      -0.00344223
O        4.54706526       4.37300528      12.23159545        3       0.00035215       0.00037670      -0.14832590
O        6.05998886       3.49876272       7.77196619        1       0.00014308       0.00018616      -0.00244128
C        3.02955789       5.24820863       9.96866529        2      -0.00000672       0.00028176      -0.00688853
Ti       3.02862500       6.99760969       8.69366086        0       0.00092876      -0.00075549       0.00823791
Ti       4.54708315       6.12176786      11.28864805        0      -0.00048438      -0.00031592      -0.00305812
O        3.02969646       6.99598022      12.23159545        3       0.00064296       0.00024172      -0.17168282
O        4.54513888       6.12353422       7.77056349        1       0.00011142       0.00004992      -0.00248358
C        1.51557282       7.87260133       9.96534185        2       0.00056581       0.00086745      -0.00691320
Ti       1.51434107       9.62044131       8.69373515        0       0.00002393       0.00101303       0.00752057
Ti       3.03252488       8.74861382      11.29238773        0      -0.00066620      -0.00066332      -0.00250074
O        1.51333912       9.62207159      12.23159545        3       0.00009048       0.00051718      -0.17450999
O        3.03118826       8.74751044       7.77096535        1      -0.00007646      -0.00000643      -0.00238833
C        9.09047015       0.00029448       9.97102381        2       0.00071416       0.00042372      -0.00613297
Ti       9.08909537       1.74955919       8.69245569        0      -0.00042277       0.00052433       0.00727811
Ti      10.60495860       0.87554452      11.28914142        0       0.00054637      -0.00013962      -0.00059638
O        9.08789708       1.75077689      12.23159545        3      -0.00003586       0.00009329      -0.18285484
O       10.60556281       0.87460429       7.77220551        1       0.00010120      -0.00005271      -0.00257673
C        7.57536153       2.62367553       9.96881934        2       0.00050765      -0.00009758      -0.00684183
Ti       7.57541247       4.37373066       8.69137874        0      -0.00070047      -0.00039916       0.00798071
Ti       9.08842054       3.49770637      11.28813570        0       0.00011141       0.00053394      -0.00200412
O        7.57316505       4.37271047      12.23159545        3      -0.00004555      -0.00001396      -0.14156326
O        9.09060445       3.49830347       7.77072609        1      -0.00009819       0.00022202      -0.00263473
C        6.05987322       5.24850355       9.96859162        2       0.00046337       0.00048879      -0.00692013
Ti       6.05985570       6.99661518       8.69244533        0      -0.00014649      -0.00072784       0.00775786
Ti       7.57329932       6.12181378      11.28922174        0       0.00029039      -0.00010909      -0.00228574
O        6.06013601       6.99465406      12.23159545        3       0.00001692       0.00072151      -0.17729919
O        7.57491661       6.12352316       7.77094812        1       0.00022658      -0.00010722      -0.00276827
C        4.54531070       7.87251961       9.97133038        2       0.00055470       0.00107041      -0.00653558
Ti       4.54443678       9.62112489       8.69404983        0      -0.00017184       0.00002316       0.00745322
Ti       6.06053791       8.74639298      11.28807171        0       0.00013998      -0.00018248      -0.00060219
O        4.54565462       9.62201334      12.23159545        3       0.00049272       0.00068626      -0.20397845
O        6.06010443       8.74734364       7.77194454        1       0.00003228       0.00016263      -0.00270937
C        0.04486747       0.06729616      15.45791124       10      -0.00491139      -0.00322361       0.06239903
C        1.25767493       0.76755027      15.45791124       10       0.00230388       0.00150906       0.02493090
C       -1.16879121       2.16832141      15.45791124       10      -0.00029960      -0.00091152       0.03966198
C        0.04467929       2.86746029      15.45791124       10      -0.00085329      -0.00134823       0.02349592
C       -2.38130592       4.26627333      15.45791124       10      -0.00050596       0.00065412       0.06130992
C       -1.16804751       4.96551128      15.45791124       10       0.00078591       0.00094339       0.06042820
C       -3.59186174       6.36308943      15.45791124       10      -0.00172095       0.00150974       0.06404098
C       -2.37955165       7.06398198      15.45791124       10      -0.00207642       0.00148011       0.06419368
C       -4.80235254       8.46202911      15.45791124       10      -0.00828884       0.00061708       0.03827012
C       -3.59035311       9.16324592      15.45791124       10       0.00241894       0.00310148       0.02462288
C        2.47082714       0.06745079      15.45791124       10      -0.00195540      -0.00160803       0.04203592
C        3.68258144       0.76832677      15.45791124       10      -0.00314003      -0.00165247       0.04224649
C        1.25803597       2.16831025      15.45791124       10      -0.00168119      -0.00140891       0.04243348
C        2.47068486       2.86740671      15.45791124       10      -0.00047229      -0.00234848       0.04250953
C        0.04474532       4.26676353      15.45791124       10      -0.00104884      -0.00088012       0.05537516
C        1.25763708       4.96566195      15.45791124       10      -0.00095105      -0.00069430       0.05705010
C       -1.16731850       6.36482844      15.45791124       10      -0.00379596       0.00084322       0.08510526
C        0.04514235       7.06480805      15.45791124       10      -0.00390182       0.00057237       0.08258838
C       -2.37848367       8.46365216      15.45791124       10      -0.00205167      -0.00052004       0.06108320
C       -1.16684991       9.16462290      15.45791124       10      -0.00219139       0.00018666       0.06090365
C        4.89411795       0.06868607      15.45791124       10      -0.00150402       0.00029471       0.06282900
C        6.10483142       0.76872738      15.45791124       10       0.00051152      -0.00068696       0.07224982
C        3.68291498       2.16796891      15.45791124       10       0.00023913      -0.00243701       0.03065202
C        4.89359853       2.86721046      15.45791124       10       0.00226355      -0.00202046       0.09431121
C        2.47081807       4.26650085      15.45791124       10      -0.00041750      -0.00140451       0.05952139
C        3.68227132       4.96501730      15.45791124       10      -0.00002486       0.00042441       0.07685992
C        1.25745781       6.36502919      15.45791124       10      -0.00250592       0.00117270       0.08789574
C        2.46969639       7.06437783      15.45791124       10      -0.00051360       0.00163775       0.06593371
C        0.04505191       8.46459444      15.45791124       10      -0.00061739       0.00012493       0.09092990
C        1.25685446       9.16487668      15.45791124       10       0.00142723      -0.00076464       0.06584539
C        7.31583076       0.06888858      15.45791124       10       0.00188854      -0.00062305       0.06826802
C        8.52720348       0.76852003      15.45791124       10       0.00128929       0.00034555       0.04934785
C        6.10475638       2.16803498      15.45791124       10       0.00376469      -0.00120570       0.06219233
C        7.31578553       2.86719241      15.45791124       10       0.00358902      -0.00112058       0.10255790
C        4.89398095       4.26565426      15.45791124       10       0.00089949      -0.00007042       0.06186105
C        6.10490528       4.96470207      15.45791124       10       0.00126280       0.00037834       0.11060019
C        3.68188813       6.36355845      15.45791124       10       0.00014753       0.00150081       0.06765335
C        4.89343115       7.06282154      15.45791124       10       0.00128736       0.00088587       0.05534197
C        2.46854418       8.46407809      15.45791124       10       0.00292700       0.00092532       0.06892956
C        3.68033420       9.16368265      15.45791124       10       0.00132549       0.00126149       0.02548978
C        9.73907083       0.06783798      15.45791124       10      -0.00328117      -0.00320147       0.04003922
C       10.95180356       0.76775844      15.45791124       10       0.00737941      -0.00100306       0.02562379
C        8.52649143       2.16793105      15.45791124       10       0.00168499      -0.00158486       0.03643628
C        9.73864061       2.86728876      15.45791124       10       0.00129129      -0.00113479       0.04869402
C        7.31570184       4.26549561      15.45791124       10      -0.00034725      -0.00117821       0.06402462
C        8.52739742       4.96480305      15.45791124       10       0.00075715      -0.00028420       0.08258358
C        6.10489269       6.36271338      15.45791124       10       0.00069250       0.00105198       0.03881234
C        7.31658262       7.06254201      15.45791124       10      -0.00026026       0.00090023       0.05444367
C        4.89252934       8.46246845      15.45791124       10      -0.00276064      -0.00181327       0.03940719
C        6.10497368       9.16287377      15.45791124       10       0.00384899       0.00261780       0.02728023
