131
Lattice="12.12 0.0 0.0 -6.06 10.496227893867395 0.0 0.0 0.0 40.0" Properties=species:S:1:pos:R:3:tags:I:1:forces:R:3 energy=-1205.794548908861 stress="0.0028872203338920948 2.5333664344404846e-07 -5.022588243437395e-07 2.5333664344404846e-07 0.0028868742460614926 4.1506001951734467e-07 -5.022588243437395e-07 4.1506001951734467e-07 0.0026814643106992863" pbc="T T F"
C        0.24842506      -0.10634962      10.00638977        2      -0.00110646       0.00011427      -0.00199757
Ti       0.25354097       1.63852814       8.71600363        0      -0.00044669       0.00038956       0.00128057
Ti       1.76773133       0.77376712      11.30763558        0      -0.00081802      -0.00108508      -0.00083003
O        0.24282942       1.64807565      12.23008024        3      -0.00168249       0.00095484      -0.09736726
O        1.77484853       0.75582962       7.79351065        1      -0.00057983       0.00190934       0.00023692
C       -1.26240007       2.51469010      10.00068656        2      -0.00148496      -0.00199294       0.00013467
Ti      -1.26317963       4.26474577       8.71564869        0      -0.00015838       0.00028293       0.00278236
Ti       0.25305420       3.38979833      11.30580599        0      -0.00098516      -0.00044670      -0.00062580
O       -1.26058862       4.25133025      12.23008024        3       0.00091434      -0.00155873      -0.09871608
O        0.25217616       3.38861839       7.77709242        1      -0.00125976       0.00160123       0.00068392
C       -2.77699181       5.13304508      10.00600031        2      -0.00088663       0.00113966      -0.00088750
Ti      -2.77681260       6.89220090       8.75383772        0      -0.00143783       0.00248863       0.00152652
Ti      -1.25534142       6.00905512      11.30757171        0       0.00134879      -0.00042218      -0.00194001
O       -2.77741450       6.81575662      12.23008024        3       0.00234458       0.00352169      -0.25681221
O       -1.26671548       6.02366234       7.79322823        1       0.00063248       0.00084687       0.00002896
C       -4.28501633       7.76676498      10.04916306        2       0.00068071       0.00087466      -0.00033763
Ti      -4.28763443       9.50984981       8.75436228        0      -0.00179451       0.00100083      -0.00092098
Ti      -2.77782217       8.63702890      11.46797352        0       0.00177877       0.00133778       0.00100557
O       -4.35399068       9.54806144      12.23008024        3      -0.00159158       0.00115922      -0.25420014
O       -2.77696219       8.63709326       7.81438624        1      -0.00068996       0.00166667      -0.00215673
C        3.28280152      -0.11771796      10.04903030        2       0.00082730       0.00082758      -0.00000650
Ti       3.28315116       1.64185277       8.72229963        0      -0.00119821       0.00332208      -0.00133105
Ti       4.79790833       0.77319224      11.30748272        0       0.00073739       0.00442305      -0.00049282
O        3.28290826       1.65415562      12.23008024        3      -0.00014893       0.00017638      -0.05002964
O        4.79130053       0.75571370       7.79358643        1      -0.00044067       0.00161716      -0.00084137
C        1.76722812       2.51907101      10.00345199        2      -0.00268847      -0.00089950       0.00117857
Ti       1.76685491       4.26369483       8.71431967        0       0.00142023      -0.00074553       0.00110510
Ti       3.28297954       3.39477699      11.30225761        0      -0.00168577      -0.00168956      -0.00204198
O        1.76767251       4.26448378      12.23008024        3      -0.00096336      -0.00186562      -0.11151695
O        3.28331274       3.38227495       7.77923616        1      -0.00225541      -0.00168980       0.00344981
C        0.25607198       5.13592640      10.00330615        2      -0.00098185       0.00029350       0.00160500
Ti       0.25446629       6.88728218       8.72235921        0       0.00207804      -0.00100664      -0.00033344
Ti       1.77225161       6.01163893      11.30226216        0       0.00027191      -0.00265506      -0.00256418
O        0.26468526       6.88133761      12.23008024        3       0.00057710       0.00012877      -0.04988013
O        1.76184865       6.01762717       7.77925530        1      -0.00145670      -0.00076204       0.00247647
C       -1.26925383       7.76655158      10.04896799        2      -0.00043007       0.00206729       0.00046129
Ti      -1.26618661       9.50952866       8.75400414        0       0.00037089       0.00225751       0.00082103
Ti       0.25948728       8.63396153      11.30784684        0       0.00428102      -0.00143013      -0.00320088
O       -1.20083834       9.54795700      12.23008024        3       0.00059064      -0.00193831      -0.25010422
O        0.24146498       8.63653528       7.79354482        1       0.00094188      -0.00046283      -0.00078346
C        6.31732330      -0.10671876      10.00642327        2       0.00062807       0.00144671      -0.00176429
Ti       6.31243141       1.63846740       8.71626587        0       0.00120279       0.00084164      -0.00030170
Ti       7.82969763       0.76689246      11.30652112        0      -0.00078031      -0.00104329      -0.00261888
O        6.32290624       1.64774036      12.23008024        3       0.00169027       0.00159000      -0.09676304
O        7.82615186       0.76473807       7.77677998        1       0.00041872      -0.00158577      -0.00086842
C        4.79880550       2.51876705      10.00349911        2       0.00156718       0.00129751       0.00200904
Ti       4.79943981       4.26377207       8.71460558        0      -0.00131875       0.00006863      -0.00185230
Ti       6.31281411       3.38936529      11.30597690        0       0.00154243      -0.00031097      -0.00066001
O        4.79809630       4.26426725      12.23008024        3       0.00156278      -0.00112060      -0.11015172
O        6.31386364       3.38868306       7.77727031        1       0.00151452       0.00035921       0.00160709
C        3.28300771       5.13928793       9.99995235        2      -0.00052254      -0.00086155       0.00293706
Ti       3.28314348       6.89049784       8.71440338        0       0.00098157      -0.00363440       0.00052425
Ti       4.79315458       6.01122090      11.30218075        0       0.00129547       0.00117594      -0.00197304
O        3.28267871       6.88921831      12.23008024        3       0.00111894      -0.00067619      -0.11061693
O        4.80444467       6.01760602       7.77932729        1       0.00037552       0.00023993       0.00361320
C        1.77191048       7.76220279      10.00351122        2      -0.00042641      -0.00067075       0.00163726
Ti       1.76623122       9.51300177       8.71626851        0       0.00152973       0.00042515       0.00052246
Ti       3.28265997       8.63850450      11.30594685        0       0.00038925      -0.00173322      -0.00101322
O        1.77922890       9.51772007      12.23008024        3       0.00317359      -0.00082414      -0.09590451
O        3.28314783       8.63974838       7.77736364        1      -0.00116214      -0.00295277       0.00065825
C        9.34281314      -0.10831001      10.00094047        2       0.00111174       0.00057167      -0.00028395
Ti       9.34288078       1.63991173       8.71367712        0      -0.00025701       0.00103916       0.00554316
Ti      10.85629411       0.76706791      11.30627736        0      -0.00164017      -0.00114836      -0.00242501
O        9.34290997       1.64032989      12.23008024        3       0.00007100      -0.00085394      -0.09448393
O       10.85967839       0.76479417       7.77655866        1      -0.00008723      -0.00094575       0.00011623
C        7.82817375       2.51454163      10.00089823        2       0.00283215      -0.00128550      -0.00072810
Ti       7.82919371       4.26486402       8.71595903        0      -0.00093318       0.00020309       0.00067843
Ti       9.34294518       3.38736528      11.30600473        0      -0.00055664       0.00053853      -0.00074591
O        7.82635371       4.25113230      12.23008024        3      -0.00062188      -0.00045523      -0.09837500
O        9.34278640       3.39100170       7.77635623        1       0.00130107       0.00174646       0.00042909
C        6.30986404       5.13602961      10.00344816        2       0.00049153      -0.00136434       0.00226256
Ti       6.31189310       6.88763025       8.72249246        0      -0.00434316      -0.00199973      -0.00162596
Ti       7.82065342       6.00896487      11.30758580        0      -0.00096424      -0.00073756      -0.00061952
O        6.30072297       6.88125329      12.23008024        3      -0.00004997       0.00043409      -0.04988818
O        7.83273691       6.02367367       7.79340681        1      -0.00080403       0.00136709      -0.00004469
C        4.79395789       7.76217869      10.00360205        2      -0.00075640       0.00069181       0.00113353
Ti       4.79977543       9.51332472       8.71613600        0      -0.00127106      -0.00231191       0.00107575
Ti       6.30528390       8.63380661      11.30781529        0       0.00189813       0.00048636      -0.00114756
O        4.78615349       9.51795213      12.23008024        3      -0.00218852      -0.00172390      -0.09640873
O        6.32466280       8.63684314       7.79366493        1      -0.00214232      -0.00199037      -0.00043094
C       -0.35456625       0.24080996      15.96823161       10      -0.00779506       0.00071742       0.05659006
C        0.85590267       0.94038857      15.95293956       10       0.00118171       0.00066317       0.07037182
C       -1.56488602       2.33940908      15.97355231       10       0.00087481      -0.00186559       0.00728776
C       -0.35297198       3.03908572      15.95584188       10       0.00057116       0.00060505       0.06619338
C       -2.77734503       4.43674781      15.96823161       10       0.00306909      -0.00572591       0.05658713
C       -1.56618772       5.13526231      15.95293956       10      -0.00138387      -0.00160186       0.07063967
C       -3.98401709       6.53965352      15.90512086       10       0.00554758      -0.00191551       0.06212017
C       -2.77726458       7.21999206      15.86329864       10      -0.00058867       0.00329144      -0.35498233
C       -5.19671352       8.64052895      15.90512086       10      -0.00268765       0.00103556       0.06200447
C       -4.00408104       9.34521230      15.86329864       10       0.00238540       0.00183492      -0.35923699
C        2.06994017       0.23422121      15.90512086       10      -0.00138464       0.00215913       0.06225540
C        3.28282057       0.93844817      15.87304218       10      -0.00158220       0.00004793       0.21298290
C        0.85893971       2.33854432      15.94189659       10      -0.00248100      -0.00194896       0.02088426
C        2.07061375       3.03800854      15.91998218       10      -0.00188092       0.00007630       0.02429495
C       -0.35389510       4.43887851      15.94189659       10       0.00090913       0.00089806       0.02085982
C        0.85757805       5.13873979      15.91998218       10       0.00334831      -0.00140199       0.02431957
C       -1.57060649       6.53964984      15.90512086       10      -0.00053614      -0.00063577       0.06258838
C       -0.35445157       7.23818160      15.87304218       10       0.00091286       0.00001345       0.21273587
C       -2.77727761       8.63663484      15.41049298       10      -0.00219628       0.00310822       0.61088710
C       -1.55044576       9.34530876      15.86329864       10      -0.00151688      -0.00308242      -0.36611448
C        4.49570150       0.23428912      15.90512086       10      -0.00037997       0.00222757       0.06162111
C        5.70967099       0.94058937      15.95293956       10       0.00061581      -0.00421107       0.07037841
C        3.28276130       2.33546265      15.90537589       10      -0.00001534       0.00140458      -0.02484627
C        4.49483118       3.03816621      15.91998218       10      -0.00027868      -0.00299653       0.02431027
C        2.07007516       4.43829966      15.91730057       10       0.00215844       0.00006087       0.05314585
C        3.28260251       5.13842027      15.91229980       10       0.00038782      -0.00101333       0.01477711
C        0.85540488       6.53979816      15.90537589       10      -0.00038701      -0.00190282      -0.02471463
C        2.06992607       7.23832242      15.91998218       10      -0.00206186      -0.00063939       0.02423439
C       -0.35778267       8.64065223      15.90512086       10       0.00092205       0.00124564       0.06198793
C        0.86076124       9.33904071      15.95293956       10       0.00038409      -0.00006547       0.07057703
C        6.92022262       0.24094551      15.96823161       10       0.00298539       0.00471844       0.05663199
C        8.13167129       0.94039863      15.97517013       10       0.00215391      -0.00021899       0.06454343
C        5.70652300       2.33870607      15.94189659       10       0.00108186      -0.00230472       0.02077750
C        6.91837138       3.03920973      15.95584188       10       0.00270283       0.00040911       0.06623826
C        4.49515472       4.43843169      15.91730057       10       0.00004956      -0.00392166       0.05315572
C        5.70768967       5.13871972      15.91998218       10      -0.00043715       0.00016785       0.02427317
C        3.28273638       6.53850373      15.91730057       10      -0.00134073      -0.00077414       0.05312109
C        4.49560829       7.23821254      15.91998218       10      -0.00088068       0.00116916       0.02425211
C        2.07009022       8.63739855      15.94189659       10      -0.00011851       0.00089934       0.02083501
C        3.28279553       9.33657909      15.95584188       10      -0.00069658      -0.00220831       0.06617067
C        9.34281465       0.23973273      15.97355231       10      -0.00181777      -0.00153547       0.00715942
C       10.55395094       0.94020930      15.97517013       10      -0.00152712       0.00495132       0.06449330
C        8.13033464       2.33955626      15.97355231       10       0.00128123      -0.00284071       0.00726209
C        9.34277350       3.03789737      15.97517013       10      -0.00261975      -0.00015536       0.06438076
C        6.91920305       4.43896386      15.94189659       10      -0.00011192      -0.00106075       0.02091816
C        8.13154441       5.13525867      15.95293956       10       0.00004916       0.00031881       0.07075022
C        5.71006221       6.53970345      15.90537589       10      -0.00110247      -0.00029146      -0.02479027
C        6.91988251       7.23808175      15.87304218       10       0.00031099       0.00177778       0.21243763
C        4.49546126       8.63729079      15.94189659       10      -0.00210125       0.00102538       0.02089416
C        5.70475946       9.33884589      15.95293956       10       0.00190818       0.00500678       0.07086989
O       -2.77940809       8.63399317      14.06813721       11       0.00562383       0.00644128      -0.00102447
