131
Lattice="12.12 0.0 0.0 -6.06 10.496227893867395 0.0 0.0 0.0 40.0" Properties=species:S:1:pos:R:3:tags:I:1:forces:R:3 energy=-1205.5724619950192 stress="0.002921734854678606 -5.328502291224996e-07 -4.0153051446776726e-07 -5.328502291224996e-07 0.0029216478165438662 1.6654369285801789e-07 -4.0153051446776726e-07 1.6654369285801789e-07 0.0023387323237095046" pbc="T T F"
C       -0.00075030       0.00051579      10.00587380        2       0.00025116      -0.00012632      -0.00099991
Ti       0.00029953       1.74916811       8.71431335        0       0.00022519       0.00030535       0.00034143
Ti       1.51526326       0.87644455      11.29794317        0       0.00007098      -0.00108564       0.00073199
O       -0.00220805       1.75136955      12.23008024        3       0.00054198       0.00028933       0.12404241
O        1.51635778       0.87193693       7.77972846        1      -0.00059373       0.00125781      -0.00071269
C       -1.51519240       2.62390681      10.00368197        2       0.00010755       0.00015817       0.00006884
Ti      -1.51522927       4.37458657       8.71681750        0       0.00013311       0.00021678       0.00054939
Ti       0.00052966       3.49909668      11.29589674        0       0.00020676       0.00006978      -0.00062404
O       -1.51514163       4.36830302      12.23008024        3       0.00021731       0.00013896       0.13897494
O       -0.00095294       3.49906536       7.77587718        1       0.00020706      -0.00006861       0.00068235
C       -3.03005961       5.24708206      10.00869675        2       0.00001821       0.00039971      -0.00132275
Ti      -3.03041210       6.99866457       8.72821891        0      -0.00000091      -0.00009401      -0.00400815
Ti      -1.51450943       6.12386636      11.30998457        0      -0.00079767       0.00071128       0.00136798
O       -3.03456842       6.98701279      12.23008024        3      -0.00041678      -0.00040100       0.05592588
O       -1.51655368       6.12617278       7.78349136        1       0.00067379      -0.00110967      -0.00129534
C       -4.54475170       7.87261014      10.01583140        2       0.00086376       0.00036382      -0.00299207
Ti      -4.54367437       9.62075910       8.72461686        0      -0.00002079       0.00000618      -0.00338360
Ti      -3.02786921       8.74597851      11.34308777        0       0.00026672      -0.00016212      -0.00306891
O       -4.55490938       9.62694136      12.23008024        3      -0.00031675       0.00004095       0.12188568
O       -3.02873605       8.74637926       7.78876304        1      -0.00028749       0.00007462      -0.00545785
C        3.02971052      -0.00030040      10.01643612        2       0.00009273      -0.00086543      -0.00312853
Ti       3.03019616       1.75000996       8.71666996        0       0.00008728      -0.00044355       0.00048282
Ti       4.54483939       0.87604730      11.30231431        0      -0.00011821      -0.00116789       0.00098291
O        3.02893866       1.75465944      12.23008024        3      -0.00001481      -0.00030226       0.10594950
O        4.54388742       0.87066099       7.78156757        1       0.00038292       0.00136313      -0.00111290
C        1.51470978       2.62481125      10.00402171        2       0.00061014       0.00001766      -0.00009299
Ti       1.51466864       4.37323842       8.71425294        0       0.00010801       0.00035548      -0.00048689
Ti       3.03045384       3.49977191      11.29564455        0       0.00022056      -0.00014742      -0.00037204
O        1.51554649       4.37251869      12.23008024        3       0.00012281       0.00004213       0.10341865
O        3.02948684       3.49673749       7.77549408        1      -0.00003226       0.00081929       0.00040475
C        0.00043002       5.24734091      10.00641770        2       0.00009488       0.00054329      -0.00038978
Ti       0.00049436       6.99724941       8.72051965        0      -0.00039148       0.00022027       0.00035796
Ti       1.51785697       6.12102533      11.29425523        0       0.00004690       0.00006970       0.00043930
O        0.00615000       6.99293311      12.23008024        3      -0.00005906      -0.00003367       0.11524501
O        1.51191473       6.12458530       7.77705582        1       0.00086009      -0.00051207       0.00043090
C       -1.51584271       7.87265993      10.02200636        2      -0.00055643       0.00039972      -0.00320092
Ti      -1.51611943       9.62130122       8.72890124        0       0.00007091       0.00000951      -0.00433695
Ti      -0.00109113       8.74559811      11.31138609        0      -0.00107405       0.00050510       0.00133322
O       -1.50795147       9.63076022      12.23008024        3       0.00020863       0.00071794       0.03391589
O       -0.00376961       8.74669173       7.78388197        1       0.00133536      -0.00012877      -0.00152336
C        6.06088094       0.00045696      10.00947873        2      -0.00037522      -0.00023884      -0.00160030
Ti       6.05950664       1.74910030       8.71556501        0      -0.00045636       0.00013330       0.00074866
Ti       7.57492864       0.87535767      11.29611798        0      -0.00005402       0.00006122      -0.00016489
O        6.06325809       1.75266586      12.23008024        3      -0.00036234       0.00020424       0.10949438
O        7.57403816       0.87373519       7.77621095        1       0.00028138       0.00037694       0.00054918
C        4.54512416       2.62564509      10.00403667        2      -0.00047158      -0.00000596      -0.00024047
Ti       4.54517678       4.37335073       8.71373144        0      -0.00020694       0.00005882      -0.00128992
Ti       6.05934759       3.49914667      11.29460294        0      -0.00040932       0.00018736      -0.00063939
O        4.54517488       4.37338067      12.23008024        3       0.00017975      -0.00019239       0.09952778
O        6.06087970       3.49803275       7.77535298        1      -0.00019056       0.00022952       0.00085649
C        3.03043763       5.24790371      10.00247964        2       0.00008164      -0.00005208       0.00056461
Ti       3.03001839       6.99783228       8.71423224        0      -0.00026113      -0.00027924      -0.00052228
Ti       4.54450854       6.12200366      11.29542659        0       0.00019003      -0.00007587      -0.00038074
O        3.03099135       6.99714155      12.23008024        3      -0.00006269       0.00004882       0.10547550
O        4.54635037       6.12417500       7.77529388        1      -0.00067956      -0.00039221       0.00048529
C        1.51582902       7.87200624      10.00672173        2      -0.00049973      -0.00024783      -0.00042637
Ti       1.51387696       9.62104982       8.71732732        0      -0.00012195      -0.00025085       0.00041575
Ti       3.03018601       8.74593803      11.29595638        0      -0.00009497      -0.00018725      -0.00065256
O        1.52002368       9.62366150      12.23008024        3      -0.00001076      -0.00012471       0.13377777
O        3.02907458       8.74757326       7.77603815        1       0.00024296      -0.00022124       0.00066002
C        9.09009915       0.00010373      10.00383082        2      -0.00010614      -0.00017301      -0.00001672
Ti       9.08970824       1.74944283       8.71343476        0      -0.00015139       0.00011705      -0.00075423
Ti      10.60458531       0.87485945      11.29585250        0      -0.00011935       0.00003268      -0.00039998
O        9.09032217       1.74909598      12.23008024        3      -0.00017544       0.00006088       0.11054647
O       10.60544320       0.87440733       7.77492867        1      -0.00035979       0.00016260       0.00049911
C        7.57511905       2.62392916      10.00339039        2      -0.00041009       0.00021282       0.00015165
Ti       7.57500084       4.37394404       8.71512181        0      -0.00039294       0.00034743       0.00087199
Ti       9.08913974       3.49833578      11.29573494        0      -0.00002889       0.00001611      -0.00013618
O        7.57396059       4.36957268      12.23008024        3      -0.00034083       0.00022380       0.10683902
O        9.09027029       3.49979911       7.77585988        1      -0.00022519      -0.00032964       0.00068137
C        6.05869597       5.24730427      10.00371757        2      -0.00031941       0.00038509      -0.00003565
Ti       6.05954046       6.99709006       8.71629151        0       0.00042732       0.00015529       0.00062045
Ti       7.57350247       6.12211178      11.30089818        0       0.00086492       0.00062301       0.00112674
O        6.05562101       6.99600465      12.23008024        3       0.00023102       0.00018294       0.10938433
O        7.57787655       6.12573813       7.78099981        1      -0.00104234      -0.00098313      -0.00072643
C        4.54423360       7.87194270      10.00383975        2       0.00018466      -0.00058382      -0.00008556
Ti       4.54528684       9.62134796       8.71438918        0      -0.00012074      -0.00042818       0.00035855
Ti       6.05881429       8.74577115      11.29775978        0       0.00084014       0.00040825       0.00085276
O        4.54289073       9.62224444      12.23008024        3       0.00001531      -0.00054027       0.11500993
O        6.06311983       8.74724839       7.77958752        1      -0.00140520      -0.00025229      -0.00057335
C        0.04164623       0.06960566      16.82086319       10       0.00618438       0.00078694      -0.00240358
C        1.25236924       0.76890157      16.80557114       10      -0.00018902      -0.00140684       0.00715813
C       -1.16828712       2.16799515      16.82618389       10      -0.00131431       0.00165249      -0.02154401
C        0.04360495       2.86775624      16.80847346       10      -0.00060194       0.00096432      -0.00826505
C       -2.38028060       4.26545360      16.82086319       10      -0.00364442       0.00144229      -0.01121850
C       -1.16945874       4.96418114      16.80557114       10      -0.00051160       0.00064624       0.00998772
C       -3.58733585       6.36793341      16.75775244       10      -0.00262689       0.00107794      -0.02200050
C       -2.38056167       7.05079058      16.71593022       10       0.00099980      -0.00124321      -0.48493584
C       -4.80072503       8.46912818      16.75775244       10       0.00338196      -0.00026577      -0.01445324
C       -3.60600033       9.17306171      16.71593022       10      -0.00101547      -0.00144395      -0.46756831
C        2.46620578       0.06347396      16.75775244       10       0.00295054      -0.00242923      -0.01699762
C        3.67938131       0.76679822      16.72567376       10       0.00356106       0.00226106       0.15828012
C        1.25505276       2.16727578      16.79452817       10       0.00085376      -0.00069574      -0.02415179
C        2.46722635       2.86647147      16.77261376       10       0.00012489       0.00069412      -0.05036324
C        0.04278445       4.26731325      16.79452817       10       0.00055044      -0.00087906      -0.02785955
C        1.25444927       4.96712528      16.77261376       10      -0.00167337       0.00031058      -0.05675589
C       -1.17342608       6.36816084      16.75775244       10       0.00146305       0.00140043      -0.01320022
C        0.04234480       7.06691684      16.72567376       10      -0.00002031      -0.00143464       0.17369981
C       -2.38077009       8.46555670      16.26312456       10       0.00171859      -0.00245380       0.29843981
C       -1.15536026       9.17297824      16.71593022       10       0.00101311       0.00239561      -0.48249177
C        4.89256979       0.06336725      16.75775244       10       0.00000973      -0.00338982      -0.01959766
C        6.10648018       0.76871820      16.80557114       10       0.00083779       0.00188814       0.02686241
C        3.67955673       2.16405480      16.75800747       10      -0.00175413       0.00136549      -0.10111321
C        4.89204206       2.86630216      16.77261376       10      -0.00103746       0.00048431      -0.03873054
C        2.46687348       4.26676339      16.76993215       10      -0.00184495       0.00012889      -0.01673815
C        3.67978868       4.96670196      16.76493138       10      -0.00070733       0.00125420      -0.03159055
C        1.25227360       6.36829094      16.75800747       10       0.00055379      -0.00007959      -0.08879620
C        2.46673178       7.06698745      16.77261376       10       0.00100837       0.00109051      -0.05340876
C        0.03951769       8.46916549      16.75775244       10      -0.00054740      -0.00184998      -0.01427065
C        1.25742257       9.16762335      16.80557114       10      -0.00011494       0.00409411       0.00916816
C        7.31709030       0.06942517      16.82086319       10      -0.00125039      -0.00207866      -0.00140726
C        8.52856581       0.76894886      16.82780171       10      -0.00022447       0.00092318      -0.02153460
C        6.10409403       2.16703025      16.79452817       10      -0.00087939       0.00290813      -0.03689436
C        7.31574784       2.86758751      16.80847346       10      -0.00229891      -0.00099993       0.00044617
C        4.89257128       4.26648979      16.76993215       10      -0.00043492       0.00134575      -0.01830422
C        6.10490198       4.96700547      16.77261376       10      -0.00203667       0.00094685      -0.03722702
C        3.67952126       6.36715253      16.76993215       10      -0.00129221      -0.00007751      -0.01186168
C        4.89241437       7.06693060      16.77261376       10      -0.00047812       0.00108802      -0.05036202
C        2.46701806       8.46621081      16.79452817       10      -0.00255120      -0.00146157      -0.02596401
C        3.67941925       9.16518401      16.80847346       10       0.00011257       0.00250048      -0.00833327
C        9.73941809       0.06842222      16.82618389       10       0.00229151      -0.00036624      -0.02486031
C       10.95037327       0.76907840      16.82780171       10      -0.00056133      -0.00195863      -0.02237823
C        8.52767739       2.16783681      16.82618389       10      -0.00249236       0.00227070      -0.03711670
C        9.73961482       2.86652783      16.82780171       10       0.00260900      -0.00131419      -0.01644965
C        7.31649017       4.26705712      16.79452817       10      -0.00176644       0.00028343      -0.03657782
C        8.52865215       4.96404640      16.80557114       10       0.00254606      -0.00084306       0.02987943
C        6.10680791       6.36815101      16.75800747       10      -0.00071243      -0.00215412      -0.10335909
C        7.31683578       7.06684362      16.72567376       10       0.00066968      -0.00240329       0.16422482
C        4.89178246       8.46625741      16.79452817       10       0.00185281      -0.00055245      -0.02854357
C        6.10154960       9.16775586      16.80557114       10      -0.00233976      -0.00254798       0.01130315
O       -2.38094538       8.46671431      14.91045797       11       0.00420059      -0.00299186       0.00030402
