130
Lattice="12.12 0.0 0.0 -6.06 10.496227893867395 0.0 0.0 0.0 40.0" Properties=species:S:1:pos:R:3:tags:I:1:forces:R:3 energy=-1200.6331505816047 stress="0.0028208959333685013 9.960678452309839e-08 4.112219438252017e-09 9.960678452309839e-08 0.002820732981746723 -3.5239663672205445e-08 4.112219438252017e-09 -3.5239663672205445e-08 0.0021005177502479615" pbc="T T F"
C       -0.00008116      -0.00008607      10.00195024        2       0.00005091      -0.00002069       0.00266550
Ti      -0.00002287       1.74936208       8.69042263        0       0.00000756      -0.00024931       0.00213878
Ti       1.51533069       0.87484172      11.30688823        0       0.00041266       0.00024550      -0.00018958
O       -0.00000889       1.74916986      12.23159545        3      -0.00019830      -0.00004996       0.05594560
O        1.51493025       0.87466989       7.76923758        1      -0.00017579      -0.00002550       0.00188123
C       -1.51504204       2.62422451      10.00209332        2      -0.00027442       0.00007320       0.00240021
Ti      -1.51504750       4.37350735       8.69023113        0       0.00009125      -0.00006787       0.00058920
Ti       0.00002445       3.49895166      11.30703857        0       0.00018548       0.00015872      -0.00052095
O       -1.51554756       4.37523642      12.23159545        3       0.00005587      -0.00027510       0.07247509
O       -0.00001363       3.49854935       7.76908197        1      -0.00002542      -0.00062578       0.00102723
C       -3.03005757       5.24808764      10.00123751        2       0.00012963       0.00008101       0.00180404
Ti      -3.02995733       6.99742958       8.69023378        0      -0.00000247       0.00006341       0.00033639
Ti      -1.51475803       6.12301534      11.30676026        0       0.00028116       0.00003907      -0.00200943
O       -3.02880997       6.99654314      12.23159545        3      -0.00028116       0.00008568       0.07083446
O       -1.51502252       6.12276281       7.76902235        1      -0.00023019      -0.00019141      -0.00006075
C       -4.54490001       7.87207436      10.00196755        2      -0.00004914      -0.00017408       0.00232450
Ti      -4.54501582       9.62151006       8.69039134        0      -0.00029234       0.00016347       0.00191438
Ti      -3.02983733       8.74684456      11.30700310        0       0.00016564       0.00009627      -0.00085955
O       -4.54507358       9.62144565      12.23159545        3      -0.00000808      -0.00000643       0.05025385
O       -3.03016998       8.74694964       7.76905586        1      -0.00056702       0.00029042       0.00074893
C        3.03022852      -0.00007770      10.00197313        2       0.00005790       0.00001821       0.00241402
Ti       3.03019393       1.74947324       8.69024956        0       0.00018201       0.00017025       0.00123670
Ti       4.54533343       0.87448343      11.30687858        0       0.00023323      -0.00017018      -0.00132729
O        3.03191813       1.75026251      12.23159545        3       0.00008542      -0.00020778       0.05123932
O        4.54483787       0.87467760       7.76897146        1      -0.00034546      -0.00000463       0.00034760
C        1.51503708       2.62430835      10.00204905        2       0.00020368      -0.00005158       0.00258611
Ti       1.51501763       4.37350153       8.69020647        0      -0.00005199      -0.00011010       0.00057718
Ti       3.03006426       3.49906114      11.30687334        0      -0.00001126       0.00026604      -0.00113254
O        1.51555504       4.37557854      12.23159545        3      -0.00023240      -0.00026822       0.06942244
O        3.02989161       3.49861546       7.76898709        1      -0.00024283      -0.00026509       0.00040496
C       -0.00002887       5.24796444      10.00126510        2       0.00002436       0.00019604       0.00168911
Ti       0.00000406       6.99750383       8.69040780        0       0.00002103      -0.00004073       0.00025393
Ti       1.51476759       6.12304521      11.30670256        0      -0.00012485       0.00007187      -0.00199898
O        0.00018112       6.99783677      12.23159545        3       0.00005815      -0.00012901       0.06169405
O        1.51499263       6.12275737       7.76901308        1       0.00013294      -0.00026316      -0.00018305
C       -1.51517967       7.87221797      10.00112856        2       0.00025690      -0.00004473       0.00165572
Ti      -1.51493770       9.62151173       8.69021716        0      -0.00015404      -0.00002454       0.00027897
Ti       0.00003667       8.74655030      11.30667854        0       0.00009721      -0.00024845      -0.00225137
O       -1.51293776       9.62066246      12.23159545        3      -0.00029121       0.00015522       0.06803352
O       -0.00002009       8.74687075       7.76901464        1      -0.00010280       0.00021072      -0.00023201
C        6.05998276       0.00009015      10.00118087        2       0.00015582      -0.00019786       0.00171886
Ti       6.06002891       1.74944193       8.69027502        0      -0.00001098       0.00010961       0.00026106
Ti       7.57465197       0.87432130      11.30684787        0      -0.00032228      -0.00023643      -0.00152032
O        6.06029522       1.75051483      12.23159545        3      -0.00009374      -0.00029417       0.05789951
O        7.57513636       0.87467580       7.76895534        1       0.00029614       0.00001958       0.00023171
C        4.54497663       2.62402968      10.00123086        2       0.00028027       0.00018068       0.00147279
Ti       4.54509259       4.37342709       8.69029277        0       0.00006109      -0.00001614       0.00037274
Ti       6.06001839       3.49875308      11.30669829        0      -0.00003225       0.00006092      -0.00210490
O        4.54625332       4.37332771      12.23159545        3      -0.00008786       0.00015235       0.05898749
O        6.05998201       3.49872290       7.76890402        1       0.00000715      -0.00001061      -0.00026186
C        3.03004985       5.24807507      10.00121873        2      -0.00001536       0.00014757       0.00174375
Ti       3.02994475       6.99746194       8.69020577        0      -0.00003119       0.00004104       0.00022680
Ti       4.54456425       6.12271329      11.30682428        0      -0.00049511      -0.00010314      -0.00150232
O        3.02858225       6.99686103      12.23159545        3      -0.00002243       0.00020075       0.06578709
O        4.54504011       6.12290985       7.76895419        1       0.00010114       0.00024108       0.00010591
C        1.51515203       7.87222873      10.00097465        2      -0.00019567      -0.00004557       0.00147170
Ti       1.51494670       9.62150347       8.69021923        0       0.00009649      -0.00008930       0.00016957
Ti       3.02988252       8.74681949      11.30694018        0      -0.00003428      -0.00001704      -0.00111568
O        1.51343194       9.62046519      12.23159545        3       0.00020603       0.00017674       0.06549702
O        3.03014836       8.74694828       7.76901238        1       0.00057917       0.00032101       0.00054273
C        9.08984298      -0.00005854      10.00186576        2      -0.00024865       0.00007388       0.00222460
Ti       9.08979369       1.74947282       8.69026186        0      -0.00020022       0.00014790       0.00098727
Ti      10.60455032       0.87484319      11.30693228        0      -0.00032000       0.00021828      -0.00033854
O        9.08753294       1.75024565      12.23159545        3       0.00025677      -0.00018902       0.05867511
O       10.60508912       0.87469075       7.76917887        1       0.00020032       0.00001525       0.00176615
C        7.57502433       2.62401988      10.00107242        2      -0.00023453       0.00012451       0.00158201
Ti       7.57492916       4.37340487       8.69033605        0      -0.00011372      -0.00002058       0.00032629
Ti       9.08995250       3.49899490      11.30686515        0       0.00012762       0.00020848      -0.00129362
O        7.57399662       4.37313434      12.23159545        3       0.00023033       0.00017639       0.06051755
O        9.09012520       3.49863229       7.76897782        1       0.00023599      -0.00019023       0.00042761
C        6.05998929       5.24815786      10.00098197        2       0.00001105      -0.00024882       0.00140380
Ti       6.05999582       6.99725792       8.69024966        0      -0.00003394      -0.00029589       0.00088719
Ti       7.57527397       6.12269367      11.30684582        0       0.00031468       0.00000761      -0.00148905
O        6.05974350       6.99466476      12.23159545        3       0.00008910       0.00013762       0.06217907
O        7.57497226       6.12293614       7.76896504        1      -0.00003017       0.00026067       0.00023476
C        4.54489401       7.87207027      10.00183075        2       0.00001521      -0.00017029       0.00224527
Ti       4.54500029       9.62152852       8.69034631        0       0.00028969       0.00014943       0.00164815
Ti       6.05995611       8.74632018      11.30691470        0      -0.00003619      -0.00054872      -0.00038240
O        4.54477737       9.62128041      12.23159545        3      -0.00000589       0.00006949       0.04639286
O        6.06002867       8.74694834       7.76914859        1       0.00005693       0.00019162       0.00154664
C        0.04478434       0.06752460      17.16317440       10       0.00583513       0.00151043       0.01350036
C        1.25673815       0.76717600      17.16317440       10       0.00307866       0.00183364       0.00405308
C       -1.16696501       2.16671644      17.16317440       10      -0.00087544       0.00036315      -0.01039355
C        0.04518779       2.86656897      17.16317440       10      -0.00244331       0.00137157      -0.01077774
C       -2.37934006       4.26618207      17.16317440       10       0.00103454      -0.00096055      -0.02632309
C       -1.16687321       4.96613612      17.16317440       10       0.00078628       0.00111588      -0.02800205
C       -3.59120141       6.36496964      17.16317440       10       0.00313628      -0.00105091      -0.02738306
C       -2.37869610       7.06498684      17.16317440       10       0.00193198      -0.00123906      -0.02929543
C       -4.80298160       8.46448064      17.16317440       10       0.00019316      -0.00077671      -0.01415922
C       -3.59072479       9.16427835      17.16317440       10      -0.00237946      -0.00155571      -0.01441862
C        2.46874962       0.06759740      17.16317440       10       0.00434638       0.00204858      -0.01156249
C        3.68092092       0.76717563      17.16317440       10       0.00429412       0.00070869      -0.01665705
C        1.25718250       2.16660782      17.16317440       10      -0.00120637       0.00273841      -0.00888134
C        2.46907963       2.86672386      17.16317440       10      -0.00113994      -0.00026033      -0.01540084
C        0.04494918       4.26615499      17.16317440       10       0.00032469       0.00115720      -0.01602572
C        1.25674505       4.96614516      17.16317440       10       0.00064374      -0.00000617      -0.02824990
C       -1.16709423       6.36529641      17.16317440       10       0.00190957       0.00170117      -0.00978906
C        0.04495621       7.06523615      17.16317440       10       0.00125989      -0.00146921      -0.06669875
C       -2.37874900       8.46438642      17.16317440       10      -0.00071543      -0.00072613      -0.01780123
C       -1.16670503       9.16399081      17.16317440       10      -0.00077683      -0.00153208      -0.03016579
C        4.89306164       0.06769154      17.16317440       10       0.00284188       0.00040765      -0.02451292
C        6.10495019       0.76707965      17.16317440       10       0.00213115       0.00200891      -0.02545874
C        3.68130628       2.16698485      17.16317440       10      -0.00160896      -0.00023537      -0.02582477
C        4.89334422       2.86663194      17.16317440       10      -0.00164915      -0.00045060      -0.01587579
C        2.46926741       4.26620486      17.16317440       10       0.00012472      -0.00063496      -0.02433792
C        3.68100237       4.96588246      17.16317440       10       0.00006579       0.00086278      -0.02340659
C        1.25681883       6.36533563      17.16317440       10       0.00161726       0.00059731      -0.00738531
C        2.46847067       7.06496767      17.16317440       10       0.00164500       0.00030299      -0.03164036
C        0.04512631       8.46458708      17.16317440       10      -0.00209808      -0.00198056      -0.00417137
C        1.25695939       9.16389603      17.16317440       10      -0.00277542      -0.00049844      -0.03240185
C        7.31669576       0.06762551      17.16317440       10       0.00076106       0.00141891      -0.02592472
C        8.52872856       0.76715914      17.16317440       10       0.00063205       0.00065450      -0.01831012
C        6.10522967       2.16712893      17.16317440       10      -0.00131372       0.00155719      -0.04018942
C        7.31706458       2.86665175      17.16317440       10      -0.00195926      -0.00166857      -0.01138726
C        4.89349162       4.26595384      17.16317440       10      -0.00055769       0.00014458      -0.04376028
C        6.10502778       4.96583013      17.16317440       10      -0.00027331      -0.00113199      -0.00734479
C        3.68095182       6.36496971      17.16317440       10       0.00121640       0.00043599      -0.02702458
C        4.89270624       7.06501517      17.16317440       10       0.00126694      -0.00268164      -0.01874512
C        2.46903123       8.46437585      17.16317440       10      -0.00421183      -0.00073314      -0.01921769
C        3.68105774       9.16427344      17.16317440       10      -0.00433034      -0.00206987      -0.01776987
C        9.74087862       0.06766177      17.16317440       10       0.00234826       0.00152556      -0.01453552
C       10.95296339       0.76723414      17.16317440       10      -0.00026000       0.00073269      -0.00123107
C        8.52898280       2.16700403      17.16317440       10      -0.00205751       0.00117680      -0.02803085
C        9.74115758       2.86671504      17.16317440       10      -0.00324382       0.00099418      -0.01550583
C        7.31667907       4.26596750      17.16317440       10      -0.00084592      -0.00112867      -0.05138636
C        8.52902342       4.96584441      17.16317440       10      -0.00116217       0.00092481      -0.01983203
C        6.10492753       6.36512580      17.16317440       10       0.00246160      -0.00136043      -0.03008302
C        7.31707756       7.06493030      17.16317440       10       0.00082020      -0.00035908      -0.01723815
C        4.89332044       8.46453055      17.16317440       10      -0.00306975      -0.00185359      -0.01572744
C        6.10523020       9.16441351      17.16317440       10      -0.00587143      -0.00155917      -0.00524069
