131
Lattice="12.12 0.0 0.0 -6.06 10.496227893867395 0.0 0.0 0.0 40.0" Properties=species:S:1:pos:R:3:tags:I:1:forces:R:3 energy=-1204.058074688753 stress="0.002687652451671809 3.93361654843073e-07 -1.7460181483010066e-06 3.93361654843073e-07 0.002686132316653801 -5.359616534517022e-06 -1.7460181483010066e-06 -5.359616534517022e-06 0.00298281331673796" pbc="T T F"
C        0.24659820      -0.08157334       9.98662274        2      -0.00251599       0.00017755       0.00131672
Ti       0.25910296       1.65699876       8.70269049        0       0.00116020      -0.00204412      -0.00185499
Ti       1.77700950       0.79791462      11.28245545        0       0.00350960       0.00120294       0.00005457
O        0.23918308       1.67891457      12.23008024        3      -0.00210561      -0.00278296      -0.31022635
O        1.78615726       0.77198854       7.78692637        1      -0.00033211      -0.00180609       0.00039032
C       -1.25754672       2.53338127       9.99130770        2       0.00031338      -0.00168127       0.00048954
Ti      -1.25845056       4.28547454       8.70149973        0      -0.00071746      -0.00163012       0.00091654
Ti       0.25792558       3.40837824      11.29875357        0      -0.00065540      -0.00198528       0.00057531
O       -1.24889106       4.25526315      12.23008024        3      -0.00080402       0.00100311      -0.31514181
O        0.25878078       3.40852720       7.76191239        1      -0.00303089      -0.00167785      -0.00291412
C       -2.77019127       5.14245807       9.98448264        2       0.00056291      -0.00128105       0.00287188
Ti      -2.76996325       6.91495643       8.76183112        0      -0.00076018      -0.00261383      -0.00170650
Ti      -1.24237507       6.02793967      11.28172091        0      -0.00040613      -0.00380896      -0.00162479
O       -2.76923595       6.68951007      12.23008024        3      -0.00124739       0.00262414      -0.41083036
O       -1.26106415       6.05045420       7.78619378        1       0.00052645      -0.00024834       0.00214560
C       -4.27772548       7.78656220      10.06998397        2      -0.00245579      -0.00333361      -0.00096684
Ti      -4.27905321       9.52920557       8.76199979        0      -0.00170722       0.00111667      -0.00183027
Ti      -2.77210948       8.65307862      11.61595929        0       0.00098684      -0.00194493      -0.00023473
O       -4.46311865       9.63672855      12.23008024        3       0.00003809      -0.00139621      -0.37055874
O       -2.77077523       8.65767475       7.82469704        1       0.00331092      -0.00193977       0.00044891
C        3.28933952      -0.09682361      10.06781885        2       0.00033705       0.00038858      -0.00113539
Ti       3.28968187       1.66507951       8.70935900        0      -0.00026698       0.00118187       0.00328640
Ti       4.80139981       0.79672615      11.28314974        0      -0.00081119       0.00378105      -0.00139458
O        3.28930289       1.68289561      12.23008024        3       0.00097438      -0.00152885      -0.21556922
O        4.79319260       0.77140455       7.78698724        1       0.00060852       0.00300764       0.00107207
C        1.77177704       2.54451871       9.99356540        2       0.00175317      -0.00097700      -0.00323773
Ti       1.77155377       4.28236602       8.70204198        0       0.00237386      -0.00006884      -0.00079531
Ti       3.28972291       3.41591922      11.28369203        0       0.00053691      -0.00302540       0.00107486
O        1.77814211       4.28598022      12.23008024        3       0.00223427       0.00183479      -0.30592348
O        3.29000659       3.39960482       7.76576839        1       0.00084055      -0.00044548      -0.00047159
C        0.26715020       5.15081571       9.99284455        2      -0.00037814       0.00262996       0.00217344
Ti       0.26406041       6.90564837       8.70945860        0       0.00163737      -0.00083150       0.00226194
Ti       1.78054431       6.03054991      11.28423685        0      -0.00038601      -0.00127289       0.00075885
O        0.27927962       6.89614605      12.23008024        3      -0.00181714      -0.00069410      -0.21708794
O        1.76655589       6.03870892       7.76569897        1       0.00000173       0.00028765       0.00013765
C       -1.26187063       7.78558113      10.06830502        2      -0.00377632       0.00069004       0.00554896
Ti      -1.26148927       9.52887106       8.76182582        0       0.00027669       0.00080224      -0.00181187
Ti       0.26834963       8.64892504      11.28323730        0       0.00164025       0.00133394      -0.00187552
O       -1.08199261       9.63282236      12.23008024        3      -0.00439057      -0.00147358      -0.35200565
O        0.24213993       8.65456184       7.78687072        1      -0.00008573      -0.00210002       0.00310922
C        6.33210568      -0.08208083       9.98741530        2       0.00064391      -0.00146132      -0.00150004
Ti       6.31991679       1.65696330       8.70283988        0       0.00005449      -0.00175745       0.00082137
Ti       7.83741835       0.78718235      11.29028288        0      -0.00192900       0.00027906      -0.00009397
O        6.33953225       1.67780391      12.23008024        3       0.00115459      -0.00049362      -0.30821490
O        7.83425025       0.78505766       7.75905526        1       0.00375085       0.00227509      -0.00013620
C        4.80767398       2.54413440       9.99407319        2      -0.00328648      -0.00228142      -0.00370514
Ti       4.80824950       4.28238253       8.70308906        0      -0.00343690       0.00057372      -0.00430730
Ti       6.32163632       3.40795313      11.29910194        0       0.00196542      -0.00203320       0.00064067
O        4.80121279       4.28604449      12.23008024        3      -0.00280431       0.00039157      -0.30274055
O        6.32123941       3.40832030       7.76228764        1      -0.00208874      -0.00075067      -0.00161141
C        3.28990994       5.15894977       9.99081171        2      -0.00106965       0.00004650       0.00142119
Ti       3.28987380       6.91211904       8.70288374        0       0.00058235      -0.00273178      -0.00126262
Ti       4.79930123       6.03075778      11.28526152        0       0.00121962      -0.00096698       0.00088531
O        3.28965832       6.90439762      12.23008024        3      -0.00101884      -0.00389371      -0.30394102
O        4.81339677       6.03868530       7.76637862        1       0.00116099      -0.00005265      -0.00028287
C        1.78435079       7.78092610       9.99401785        2      -0.00301994      -0.00217527       0.00207450
Ti       1.77182221       9.53403147       8.70273073        0       0.00018413       0.00025965       0.00114810
Ti       3.28931349       8.66075182      11.29855277        0       0.00202036      -0.00028432       0.00109132
O        1.80032298       9.54120253      12.23008024        3      -0.00182468      -0.00128349      -0.30766218
O        3.28976923       8.65930690       7.76262213        1      -0.00135189       0.00145138      -0.00162447
C        9.34938064      -0.08671071       9.99189775        2       0.00096597      -0.00105842       0.00134188
Ti       9.34958120       1.65996435       8.70069649        0      -0.00085161      -0.00123662      -0.00065014
Ti      10.86127382       0.78773308      11.29077117        0       0.00191679      -0.00187844      -0.00291957
O        9.34940525       1.66013569      12.23008024        3       0.00181315      -0.00071431      -0.28667793
O       10.86465976       0.78519880       7.75874831        1      -0.00356055       0.00183114       0.00155958
C        7.83666293       2.53323764       9.99174257        2       0.00014201      -0.00151227      -0.00249856
Ti       7.83789422       4.28550238       8.70201727        0       0.00082099      -0.00038013       0.00076302
Ti       9.34990377       3.40529066      11.28984587        0      -0.00181078      -0.00053122       0.00044885
O        7.82877684       4.25540522      12.23008024        3      -0.00011087      -0.00147917      -0.31234243
O        9.34956597       3.40914787       7.75805514        1      -0.00002839      -0.00603337      -0.00062168
C        6.31269054       5.15086233       9.99385000        2      -0.00010730       0.00222544      -0.00301908
Ti       6.31558674       6.90583057       8.71019801        0      -0.00235746      -0.00115621       0.00362644
Ti       7.82273087       6.02789698      11.28228699        0      -0.00502339      -0.00228876      -0.00095280
O        6.30026182       6.89664525      12.23008024        3       0.00245827      -0.00123736      -0.21463866
O        7.84058253       6.05093411       7.78700585        1      -0.00240279      -0.00312126       0.00073376
C        4.79506662       7.78102378       9.99444826        2      -0.00033691      -0.00141974      -0.00169514
Ti       4.80735322       9.53433757       8.70310258        0       0.00189956      -0.00118974      -0.00154492
Ti       6.31002228       8.64990276      11.28311100        0      -0.00001572      -0.00410832       0.00053676
O        4.77818584       9.54151847      12.23008024        3       0.00020986       0.00118456      -0.30739236
O        6.33717403       8.65418039       7.78764676        1       0.00098175      -0.00013676       0.00053654
C       -0.36609068       0.20977668      15.39981056       10      -0.00447536      -0.00408789       0.13631651
C        0.84432701       0.90967163      15.38451851       10       0.00593033      -0.00267063       0.10643946
C       -1.57596427       2.30814994      15.40513126       10       0.00234015      -0.00341684       0.11360089
C       -0.36403979       3.00782555      15.38742083       10      -0.00000527      -0.00081511       0.08387556
C       -2.78798727       4.40523930      15.39981056       10      -0.00021651       0.00059963       0.13491863
C       -1.57675990       5.10380934      15.38451851       10      -0.00198261       0.00383658       0.10873669
C       -3.99429546       6.51024571      15.33669981       10       0.00005720       0.00050542       0.10327066
C       -2.78783559       7.19282307      15.29487759       10      -0.00122479       0.00462253      -0.43602062
C       -5.20668384       8.60874208      15.33669981       10      -0.00353088      -0.00256641       0.10520244
C       -4.01318761       9.31302733      15.29487759       10       0.00632503       0.00058947      -0.36495066
C        2.05985503       0.20261538      15.33669981       10       0.00054173       0.00002704       0.11237988
C        3.27211338       0.90852220      15.30462113       10      -0.00379734      -0.00045133       0.33239295
C        0.84777944       2.30695055      15.37347554       10      -0.00047295      -0.00359375       0.08476099
C        2.05980757       3.00674814      15.35156113       10      -0.00044866       0.00084777       0.06357446
C       -0.36506828       4.40781257      15.37347554       10      -0.00257343       0.00134201       0.08283346
C        0.84724873       5.10702683      15.35156113       10      -0.00000461       0.00132542       0.06462212
C       -1.58143441       6.51017490      15.33669981       10      -0.00515596       0.00332648       0.10576361
C       -0.36365246       7.20612526      15.30462113       10      -0.00038717       0.00172123       0.33309816
C       -2.78713031       8.60796378      14.84207193       10      -0.00374576       0.00196469       1.03163524
C       -1.56200940       9.31349457      15.29487759       10      -0.00322880      -0.00349681      -0.33082855
C        4.48446193       0.20286334      15.33669981       10      -0.00083069       0.00192439       0.11296120
C        5.69982955       0.90980404      15.38451851       10      -0.00192132      -0.00092396       0.10510839
C        3.27188714       2.30404766      15.33695484       10       0.00191266       0.00023895       0.03920235
C        4.48397969       3.00669477      15.35156113       10       0.00034778       0.00244560       0.06286235
C        2.05921655       4.40655025      15.34887952       10       0.00135996       0.00163464       0.12164124
C        3.27186938       5.10655273      15.34387875       10      -0.00015473       0.00107297       0.08941762
C        0.84471028       6.50807958      15.33695484       10       0.00061045       0.00147277       0.03693861
C        2.05929563       7.20634936      15.35156113       10       0.00063754       0.00185449       0.06148654
C       -0.36888805       8.60876848      15.33669981       10      -0.00114924       0.00451657       0.10856449
C        0.85107398       9.30789093      15.38451851       10       0.00089062      -0.00220313       0.10441846
C        6.91018782       0.20978498      15.39981056       10       0.00009465       0.00311307       0.13652324
C        8.12140044       0.90921757      15.40674908       10       0.00327711       0.00106719       0.06862228
C        5.69607363       2.30699181      15.37347554       10       0.00054918      -0.00185071       0.08518665
C        6.90788031       3.00774240      15.38742083       10       0.00372748       0.00349691       0.08319099
C        4.48455175       4.40652063      15.34887952       10       0.00166891       0.00216575       0.12075706
C        5.69662287       5.10695240      15.35156113       10       0.00201179       0.00187411       0.06420013
C        3.27185162       6.50683384      15.34887952       10       0.00288829       0.00151299       0.11892003
C        4.48448357       7.20628105      15.35156113       10       0.00156295       0.00416630       0.06166090
C        2.05910754       8.60589428      15.37347554       10       0.00270956       0.00386724       0.08410640
C        3.27187056       9.30515529      15.38742083       10       0.00359645       0.00034276       0.08147796
C        9.33200820       0.20834365      15.40513126       10      -0.00320569       0.00039181       0.12139903
C       10.54248022       0.90921689      15.40674908       10       0.00516806       0.00160349       0.06809017
C        8.11979907       2.30810548      15.40513126       10       0.00116808      -0.00025360       0.11575036
C        9.33195151       3.00621807      15.40674908       10      -0.00175174       0.00430623       0.06877355
C        6.90904662       4.40778311      15.37347554       10       0.00018923       0.00352866       0.08211053
C        8.12084340       5.10376011      15.38451851       10      -0.00019192       0.00510244       0.10863988
C        5.69919202       6.50804044      15.33695484       10       0.00179905       0.00250211       0.03475531
C        6.90774328       7.20597186      15.30462113       10      -0.00000318       0.00670773       0.33391425
C        4.48474709       8.60589300      15.37347554       10      -0.00000341       0.00052746       0.08260443
C        5.69293227       9.30771643      15.38451851       10       0.00829002       0.00427687       0.10586531
O       -2.78001858       8.63028677      13.47823973       11       0.00032606      -0.00043190       0.00420005
