132
Lattice="12.12 0.0 0.0 -6.06 10.496227893867395 0.0 0.0 0.0 40.0" Properties=species:S:1:pos:R:3:tags:I:1:forces:R:3 energy=-1207.345232671327 stress="0.002662445064946933 -5.2878543015076356e-05 -8.636603981602926e-06 -5.2878543015076356e-05 0.0026039972000166806 8.887653675887063e-06 -8.636603981602926e-06 8.887653675887063e-06 0.0029360683962606797" pbc="T T F"
C       -0.07715205      -0.07177244       9.99749460        2      -0.00019400      -0.00072636      -0.00052938
Ti      -0.07485497       1.68164814       8.70897359        0      -0.00487045       0.00254874      -0.00494944
Ti       1.42040304       0.81820280      11.29233344        0       0.00194823      -0.00041124      -0.00176949
O       -0.12902302       1.71300316      12.23008024        3      -0.00049998       0.00015582      -0.04272166
O        1.43731551       0.80751830       7.77059650        1       0.00337544       0.00622389       0.00026816
C       -1.60138710       2.56356916      10.02846909        2      -0.00202820      -0.00256130       0.00406280
Ti      -1.58924037       4.30422206       8.72025497        0       0.00104926       0.00000976       0.00145955
Ti      -0.05324816       3.47562327      11.23966720        0      -0.00134228       0.00329555      -0.00597616
O       -1.40952953       4.49209983      12.23008024        3      -0.00255431       0.00489028      -1.19529612
O       -0.07839641       3.42496089       7.76702151        1      -0.00047740      -0.00053198       0.00023398
C       -3.09249116       5.16228087      10.03031292        2      -0.00721753      -0.00097381       0.00189642
Ti      -3.09887360       6.93140856       8.70929895        0       0.00066221      -0.00075497       0.00201212
Ti      -1.57811704       6.09078918      11.28563388        0      -0.00269572      -0.00438248      -0.00216681
O       -3.10238460       6.94878970      12.23008024        3      -0.00040851       0.00112209      -0.28455195
O       -1.59448277       6.04929580       7.76824364        1       0.00013581       0.00070940      -0.00151490
C       -4.61540227       7.80406670       9.99981775        2       0.00023482      -0.00000064       0.00070590
Ti      -4.61864105       9.55293274       8.70858491        0      -0.00410508       0.00069456       0.00517443
Ti      -3.11011936       8.69408597      11.28203070        0      -0.00645439       0.00180168      -0.00109823
O       -4.62788983       9.56351508      12.23008024        3      -0.00338068       0.00304820      -0.28976787
O       -3.10930685       8.67254545       7.76346296        1       0.00006334       0.00295335      -0.00179460
C        2.94541679      -0.06262465       9.99915885        2       0.00260243       0.00242022       0.00137041
Ti       2.95617119       1.68023675       8.70900777        0      -0.00044086       0.00351119      -0.00199269
Ti       4.45508070       0.80421901      11.28166860        0      -0.00700373       0.00153673      -0.00115108
O        2.94205738       1.68340078      12.23008024        3      -0.00047790       0.00028960      -0.29166010
O        4.47347556       0.81308702       7.76356252        1      -0.00186185       0.00576620      -0.00046584
C        1.44292493       2.56002681       9.99739380        2      -0.00465944      -0.00030583       0.00110039
Ti       1.44781012       4.30750413       8.68954238        0      -0.00236200      -0.00131259      -0.00370565
Ti       2.95714406       3.43597495      11.29294804        0      -0.00102057       0.00421354      -0.00143461
O        1.46380625       4.31926502      12.23008024        3      -0.00265581       0.00042660      -0.39515841
O        2.96429984       3.42865647       7.76325610        1      -0.00257423      -0.00053826       0.00491536
C       -0.05359883       5.19398544       9.96957713        2      -0.00072925      -0.00341724       0.00386657
Ti      -0.06723639       6.92670661       8.69017852        0      -0.00267684       0.00437492       0.00105169
Ti       1.45280009       6.06647958      11.27931250        0      -0.00020789      -0.00201647       0.00065622
O       -0.04579976       6.95846945      12.23008024        3       0.00213432       0.00218779      -0.44285733
O        1.45060033       6.05385755       7.74962871        1      -0.00007689      -0.00058521      -0.00199233
C       -1.58688583       7.82193430       9.98148943        2      -0.00605267       0.00324562      -0.00100502
Ti      -1.58650404       9.55152991       8.69288719        0       0.00654477      -0.00153189       0.00315954
Ti      -0.07822942       8.68095417      11.27594087        0      -0.00417428       0.00489010      -0.00310488
O       -1.59189137       9.55471035      12.23008024        3      -0.00198928       0.00310123      -0.38869744
O       -0.07595952       8.68006978       7.74912333        1      -0.00249675      -0.00209123       0.00213584
C        5.97140829      -0.07880146       9.98169788        2      -0.00283768       0.00267635       0.00101115
Ti       5.98666489       1.67526751       8.70987548        0       0.00095947      -0.00165153      -0.00183290
Ti       7.47574310       0.77908772      11.28613784        0       0.00736802       0.00598238      -0.00206071
O        5.97013544       1.66945492      12.23008024        3      -0.00236875       0.00247326      -0.28333689
O        7.50307864       0.81332854       7.76829654        1      -0.00182671       0.00425461       0.00116174
C        4.47277477       2.55209235       9.99968030        2      -0.00140126       0.00108983       0.00476756
Ti       4.47933733       4.29933297       8.70876500        0      -0.00657506       0.00205793       0.00341299
Ti       5.99617313       3.42230470      11.29625554        0       0.00422200       0.00115210      -0.00228511
O        4.47755937       4.30337942      12.23008024        3       0.00073672      -0.00115223      -0.28553936
O        6.00111977       3.42621758       7.77821887        1      -0.00271031       0.00279646      -0.00284743
C        2.96579529       5.17831734       9.99306401        2      -0.00110130       0.00492578      -0.00218201
Ti       2.96601985       6.92325179       8.69677156        0      -0.00137749      -0.00043127      -0.00046444
Ti       4.47966943       6.04926017      11.28226816        0      -0.00358598       0.00299519      -0.00050093
O        2.96311979       6.92530353      12.23008024        3      -0.00162796       0.00221496      -0.34991188
O        4.48380207       6.04670359       7.76424938        1      -0.00227389       0.00233799      -0.00366555
C        1.44679878       7.80058727       9.98091308        2       0.00082084      -0.00179037       0.00363407
Ti       1.44647119       9.54848303       8.69070632        0      -0.00688791       0.00266105      -0.00012095
Ti       2.95165959       8.66287128      11.27946719        0       0.00354733      -0.00034689       0.00041010
O        1.43012771       9.51418908      12.23008024        3       0.00141758       0.00592544      -0.44090314
O        2.96076670       8.67038370       7.74977793        1       0.00534170       0.00156596      -0.00215610
C        9.01412210      -0.09250902       9.97015191        2       0.00107394       0.00052333       0.00156038
Ti       9.01679190       1.68173515       8.71960033        0      -0.00198194       0.00068822       0.00604620
Ti      10.50281912       0.76601455      11.23866369        0      -0.00835206       0.00125540      -0.00335322
O        8.94465970       1.43767059      12.23008024        3      -0.00040882       0.00045433      -1.18512785
O       10.53361722       0.81279623       7.76702801        1      -0.00172296       0.00087893      -0.00066328
C        7.52231503       2.55531267      10.03059651        2      -0.00377606       0.00012901      -0.00001935
Ti       7.50864553       4.30064183       8.72668130        0       0.00125573      -0.00036423       0.00349298
Ti       9.03210521       3.42103722      11.32308328        0       0.00143776      -0.00208271       0.00329757
O        7.49495535       4.30908407      12.23008024        3      -0.00143900       0.00053296      -0.06345190
O        9.01960824       3.42812136       7.77775994        1      -0.00285213       0.00410664      -0.00315256
C        5.99428335       5.17493555      10.00479715        2       0.00010444      -0.00047059      -0.00159778
Ti       5.99462716       6.92423055       8.70865255        0      -0.00234775       0.00570940       0.00523253
Ti       7.51342730       6.04992245      11.29583985        0      -0.00095103      -0.00223409      -0.00184159
O        5.99083302       6.92434181      12.23008024        3      -0.00179114       0.00080098      -0.28650013
O        7.51209306       6.04373179       7.77786369        1      -0.00510246      -0.00221920      -0.00056758
C        4.47676847       7.79564574       9.99287681        2      -0.00089844       0.00312686      -0.00111069
Ti       4.47210614       9.54583778       8.68929468        0       0.00059819       0.00548539       0.00051259
Ti       5.98157873       8.67411909      11.29305059        0      -0.00425943       0.00315490      -0.00313059
O        4.47009889       9.52693879      12.23008024        3      -0.00322894       0.00073653      -0.39775331
O        5.99138912       8.67210957       7.76347094        1      -0.00340685       0.00052753       0.00130140
C        0.14996013       0.17897089      15.28835957       10      -0.00130624      -0.00294929       0.10441302
C        1.35860462       0.88206073      15.29674780       10       0.00027673      -0.00311919       0.06924050
C       -1.03823960       2.26592748      15.26398890       10       0.00594213      -0.00429095       1.26671945
C        0.14730636       2.97982874      15.27162764       10       0.00340278      -0.00161385       0.15948805
C       -2.28203691       4.41033679      15.26398335       10       0.00057761      -0.00754694       0.58656758
C       -1.07202274       5.08462556      15.27162508       10      -0.00204877      -0.00382048       0.15957109
C       -3.49463878       6.48923063      15.28835902       10       0.00342739      -0.00485186       0.10573333
C       -2.28266987       7.18494699      15.29674760       10       0.00500999      -0.00467514       0.13198917
C       -4.70511582       8.58041165      15.28646663       10       0.00304871      -0.00122067       0.12293163
C       -3.49377347       9.28059442      15.29775629       10       0.00463800      -0.00329301       0.07058427
C        2.56906396       0.18305108      15.29878131       10      -0.00079193      -0.00343137       0.08929316
C        3.77900168       0.88450070      15.29775620       10       0.00325378      -0.00365353       0.07131940
C        1.36302485       2.28020432      15.28835978       10       0.00236632      -0.00064435       0.10605861
C        2.56880957       2.98355994      15.27929965       10       0.00376583      -0.00203391       0.04719980
C        0.14209226       4.38333612      15.24549976       10      -0.00350467      -0.00182231       0.22644811
C        1.35225074       5.08161273      15.25716971       10      -0.00062285      -0.00328204       0.04564730
C       -1.06944550       6.48906786      15.28835902       10       0.00324438      -0.00484699       0.04802979
C        0.14204624       7.18297742      15.27929975       10       0.00419503      -0.00191024       0.11654120
C       -2.28159525       8.58297970      15.29878152       10       0.00255680      -0.00606419       0.08010829
C       -1.07040337       9.28121918      15.29775629       10       0.00384071       0.00016802       0.12838030
C        4.98906812       0.18313105      15.29878131       10       0.00229768      -0.00015210       0.07817216
C        6.19920117       0.88290181      15.29674780       10       0.00339689       0.00067534       0.13200090
C        3.77957898       2.28359902      15.28646650       10      -0.00113719      -0.00213595       0.12010429
C        4.98987836       2.98411948      15.27929965       10       0.00128491      -0.00253316       0.06797852
C        2.56581108       4.38306701      15.26541615       10       0.00073647      -0.00186687       0.08287554
C        3.77835454       5.08247721      15.26262829       10       0.00302283      -0.00129544       0.09942199
C        1.35332138       6.48289154      15.26541605       10       0.00207570      -0.00360272       0.01889868
C        2.56578915       7.18222904      15.26262818       10       0.00143106      -0.00149421       0.14579304
C        0.14151381       8.58151980      15.28646663       10       0.00381884      -0.00214093       0.05038984
C        1.35298432       9.28024251      15.27929950       10       0.00459141      -0.00141685       0.11750197
C        7.40838177       0.18007127      15.28835957       10       0.00229527      -0.00207219       0.04544550
C        8.62327221       0.88442064      15.27162745       10      -0.00349207       0.00272646       0.16717284
C        6.19549546       2.28035497      15.28835978       10       0.00185765       0.00193645       0.10215896
C        7.41105175       2.98173827      15.27162764       10       0.00139982      -0.00031884       0.11756805
C        4.99022776       4.38299953      15.26541615       10       0.00322452       0.00011779       0.11572938
C        6.20291949       5.08221101      15.25716971       10       0.00487266      -0.00203723       0.01831131
C        3.77778324       6.48255908      15.25955029       10      -0.00032509      -0.00118500       0.07569048
C        4.99058080       7.18203043      15.26262818       10       0.00050087      -0.00298108       0.10136025
C        2.56518212       8.58190774      15.26541588       10       0.00612387      -0.00044144       0.01676573
C        3.77824820       9.28351662      15.25716930       10       0.00399905       0.00227436       0.05200231
C        9.83819369       0.18458933      15.24549971       10      -0.00330321       0.00216854       0.22160238
C       11.05631944       0.88193581      15.27162745       10      -0.00131636      -0.00326049       0.16331815
C        8.60125114       2.26916169      15.26398890       10       0.00205083       0.00110167       0.66421763
C        9.84228032       2.98025372      15.01962964       10       0.00447791      -0.00654332      -0.65550695
C        7.41157068       4.38423254      15.24549976       10       0.00472569      -0.00054728       0.33682109
C        8.62591000       5.08573678      15.27162508       10       0.00266166      -0.00584651       0.11525669
C        6.20212194       6.48206111      15.26541605       10       0.00276664      -0.00025357       0.11611784
C        7.41334375       7.18183404      15.27929975       10       0.00319808      -0.00154397       0.06995115
C        4.98999881       8.58190642      15.26541588       10       0.00243309      -0.00098250       0.08157076
C        6.20351662       9.27914547      15.27929950       10       0.00249992      -0.00303932       0.04995939
O        9.85099509       2.95542976      13.53056112       11      -0.00061554      -0.00099207      -0.00114816
H       10.65590542       2.47987753      13.20117348       12       0.00432212       0.00083257      -0.00223718
