131
Lattice="12.12 0.0 0.0 -6.06 10.496227893867395 0.0 0.0 0.0 40.0" Properties=species:S:1:pos:R:3:tags:I:1:forces:R:3 energy=-1206.061609037788 stress="0.002933479797805773 -3.038180638280045e-06 1.397565504884403e-06 -3.038180638280045e-06 0.0029298545390385694 3.5814220065785046e-06 1.397565504884403e-06 3.5814220065785046e-06 0.0025220343659665954" pbc="T T F"
C       -0.00029584       0.00067443      10.00588391        2       0.00061682       0.00010398       0.00309470
Ti       0.00083613       1.74913229       8.71622275        0       0.00014564       0.00021293       0.00055450
Ti       1.51547362       0.87713328      11.30524744        0       0.00037822       0.00266887      -0.00535842
O       -0.00220712       1.75060794      12.23008024        3       0.00022196      -0.00059458       0.05993876
O        1.51814166       0.87107364       7.78442485        1       0.00010037       0.00060018      -0.00266240
C       -1.51453606       2.62407661      10.00369560        2       0.00036214       0.00033144       0.00185324
Ti      -1.51491221       4.37490708       8.72021829        0      -0.00007307       0.00077316       0.00025278
Ti       0.00086871       3.49873442      11.30218501        0       0.00103497       0.00121092      -0.00224047
O       -1.51394827       4.36527409      12.23008024        3      -0.00045648       0.00172569       0.07976274
O       -0.00083650       3.49971285       7.77947003        1       0.00037815       0.00069600      -0.00139296
C       -3.03003919       5.24618312      10.00968206        2       0.00020407       0.00104451       0.00336204
Ti      -3.03017670       6.99890914       8.73514915        0       0.00016755       0.00017058      -0.00117246
Ti      -1.51676995       6.12464613      11.31958132        0       0.00233154      -0.00229685      -0.00626938
O       -3.03968661       6.97263935      12.23008024        3       0.00125959       0.00574518      -0.15582199
O       -1.51649514       6.12821489       7.78959042        1       0.00061996       0.00049349      -0.00253062
C       -4.54163695       7.87435118      10.02224086        2      -0.00085295       0.00006848       0.00195809
Ti      -4.54306812       9.62079338       8.72941683        0       0.00029635       0.00041369      -0.00114858
Ti      -3.02880417       8.74746490      11.35292141        0       0.00026074       0.00041435      -0.00871112
O       -4.55893810       9.63041036      12.23008024        3       0.00296703      -0.00131350       0.06937128
O       -3.02752261       8.74602372       7.79404400        1       0.00027376       0.00033486      -0.00440744
C        3.03055569      -0.00272136      10.02221520        2      -0.00005726       0.00135226       0.00202438
Ti       3.03059180       1.75067389       8.71997955        0      -0.00007318       0.00102380       0.00039881
Ti       4.54598088       0.87797118      11.30910881        0       0.00067434       0.00409959      -0.00612143
O        3.02750121       1.75612511      12.23008024        3       0.00051627      -0.00125797       0.06271178
O        4.54351661       0.86984947       7.78646236        1       0.00021272       0.00076153      -0.00252561
C        1.51521658       2.62527606      10.00448580        2      -0.00075401      -0.00048366       0.00181113
Ti       1.51479947       4.37327854       8.71687591        0       0.00052580       0.00021252       0.00017604
Ti       3.03016394       3.50076645      11.30215730        0       0.00004925       0.00062610      -0.00216732
O        1.51496392       4.37216951      12.23008024        3       0.00039286       0.00067058       0.04581020
O        3.02946865       3.49641757       7.77924477        1       0.00031632       0.00060966      -0.00127294
C        0.00044515       5.24773590      10.00848710        2      -0.00061071       0.00026336       0.00215326
Ti       0.00102090       6.99737226       8.72592944        0       0.00076624       0.00009344       0.00064342
Ti       1.51690058       6.12175820      11.30141592        0       0.00010298       0.00014853      -0.00315246
O        0.00797446       6.99269504      12.23008024        3      -0.00161737       0.00168997       0.05965538
O        1.51082723       6.12566777       7.78183332        1       0.00054718       0.00030289      -0.00159094
C       -1.51740338       7.87441043      10.03151887        2       0.00072159       0.00008710       0.00180168
Ti      -1.51579908       9.62181863       8.73504981        0       0.00045872       0.00068721      -0.00144626
Ti      -0.00224466       8.74897647      11.31969714        0       0.00371310      -0.00037624      -0.00632433
O       -1.49518459       9.64587479      12.23008024        3      -0.00472729      -0.00392195      -0.22829678
O       -0.00494117       8.74613341       7.78951585        1       0.00033585       0.00003503      -0.00250138
C        6.06268121       0.00212909      10.00946689        2      -0.00039154       0.00001484       0.00345981
Ti       6.06001328       1.74931490       8.71815494        0       0.00064031       0.00041826      -0.00017229
Ti       7.57733381       0.87721036      11.30208338        0      -0.00079619       0.00035288      -0.00282095
O        6.06585864       1.75423877      12.23008024        3      -0.00037594      -0.00067467       0.05633946
O        7.57423793       0.87402010       7.77930453        1       0.00045362       0.00052103      -0.00130378
C        4.54545837       2.62735481      10.00466697        2       0.00042387      -0.00082272       0.00152506
Ti       4.54538136       4.37358258       8.71602768        0       0.00007780       0.00063359      -0.00070504
Ti       6.05913176       3.50019990      11.30167677        0       0.00025798       0.00033051      -0.00155260
O        4.54450119       4.37443648      12.23008024        3       0.00016555       0.00060306       0.03527023
O        6.06133742       3.49852204       7.77895057        1      -0.00017759       0.00057706      -0.00114629
C        3.03030207       5.24830921      10.00344887        2       0.00019255       0.00067155       0.00052772
Ti       3.03025912       6.99824828       8.71711660        0       0.00066240       0.00024456       0.00016248
Ti       4.54379002       6.12257477      11.30193718        0      -0.00013687       0.00003940      -0.00239743
O        3.03066753       6.99810910      12.23008024        3       0.00024792       0.00042733       0.04758296
O        4.54707242       6.12514460       7.77934755        1       0.00022413       0.00042123      -0.00122588
C        1.51595213       7.87261965      10.00881147        2       0.00002051       0.00125001       0.00215164
Ti       1.51415592       9.62144733       8.72034648        0      -0.00015616       0.00053369       0.00019020
Ti       3.03049158       8.74669312      11.30285499        0      -0.00003663      -0.00044914      -0.00245433
O        1.52345641       9.62596789      12.23008024        3      -0.00131876       0.00016967       0.07478441
O        3.02911281       8.74760057       7.77974904        1       0.00003454       0.00021792      -0.00142879
C        9.09074621       0.00040620      10.00390817        2       0.00039299       0.00027814       0.00179634
Ti       9.09049235       1.74960968       8.71474680        0      -0.00001254       0.00045116       0.00081780
Ti      10.60593156       0.87502935      11.30129531        0       0.00023855       0.00057292      -0.00304634
O        9.09271515       1.74897801      12.23008024        3       0.00036666       0.00012376       0.05688082
O       10.60596760       0.87440238       7.77779484        1       0.00004556       0.00052842      -0.00106053
C        7.57571083       2.62443013      10.00417076        2       0.00081754       0.00009727       0.00115918
Ti       7.57541756       4.37419199       8.71816346        0       0.00044153      -0.00010327       0.00006157
Ti       9.08968060       3.49765628      11.30267962        0      -0.00008703       0.00119114      -0.00291005
O        7.57479655       4.36851905      12.23008024        3       0.00068066       0.00114210       0.05675056
O        9.09047262       3.50052813       7.77934963        1       0.00023985       0.00015507      -0.00126218
C        6.05793822       5.24721923      10.00467275        2       0.00130640       0.00098274       0.00172609
Ti       6.05943754       6.99699074       8.72011219        0      -0.00033810       0.00036828       0.00072920
Ti       7.57315639       6.12184714      11.30837548        0      -0.00206604      -0.00159132      -0.00619622
O        6.05351995       6.99711315      12.23008024        3       0.00164121       0.00106973       0.05578169
O        7.57882174       6.12740073       7.78662062        1       0.00000719       0.00025099      -0.00267245
C        4.54435315       7.87209442      10.00485749        2       0.00062139       0.00163701       0.00209420
Ti       4.54590183       9.62145612       8.71669894        0       0.00021263       0.00079191       0.00068165
Ti       6.05887706       8.74658244      11.30592930        0      -0.00123128      -0.00069404      -0.00554674
O        4.54363264       9.62432068      12.23008024        3       0.00084297       0.00060491       0.07312492
O        6.06503245       8.74658009       7.78460788        1       0.00009527       0.00049559      -0.00273269
C        0.04154059       0.06908997      16.39454740       10      -0.00552144      -0.00243440      -0.00688624
C        1.25218395       0.76842744      16.37925535       10       0.00222867       0.00171335       0.02317493
C       -1.16875627       2.16761630      16.39986810       10       0.00009199      -0.00331820      -0.02557765
C        0.04328605       2.86736970      16.38215767       10      -0.00064772      -0.00053784       0.00308596
C       -2.38080758       4.26479885      16.39454740       10       0.00227121      -0.00177919       0.01888262
C       -1.16996922       4.96360577      16.37925535       10       0.00085089      -0.00150893       0.02829299
C       -3.58785794       6.36717056      16.33143665       10       0.00343372      -0.00348048      -0.00009702
C       -2.38115991       7.04912774      16.28961443       10       0.00097775      -0.00229448      -0.41407533
C       -4.80052668       8.46844710      16.33143665       10      -0.00494109      -0.00137603      -0.01174609
C       -3.60691799       9.17288603      16.28961443       10       0.00101906       0.00080072      -0.42524163
C        2.46646835       0.06268763      16.33143665       10      -0.00345965       0.00236717      -0.01260284
C        3.67937278       0.76678249      16.29935797       10      -0.00193671      -0.00566297       0.18539393
C        1.25500950       2.16685688      16.36821238       10      -0.00199964      -0.00036441      -0.02682572
C        2.46696295       2.86636041      16.34629797       10       0.00014758      -0.00253621      -0.02453661
C        0.04240773       4.26711440      16.36821238       10      -0.00025163      -0.00170638      -0.00719175
C        1.25406124       4.96689975      16.34629797       10       0.00069158      -0.00080967      -0.02885933
C       -1.17388886       6.36765892      16.33143665       10       0.00011051      -0.00452195       0.01065661
C        0.04210332       7.06615724      16.29935797       10      -0.00049766       0.00194910       0.17685390
C       -2.38213411       8.46412808      15.83680877       10      -0.00100546       0.00119050       0.63530708
C       -1.15604776       9.17241889      16.28961443       10       0.00004626      -0.00223379      -0.46041966
C        4.89200013       0.06237355      16.33143665       10       0.00121393       0.00525002       0.00222266
C        6.10599155       0.76807494      16.37925535       10       0.00019671      -0.00221642       0.03369119
C        3.67931215       2.16402557      16.33169168       10      -0.00033590      -0.00293577      -0.07304798
C        4.89162211       2.86616334      16.34629797       10      -0.00141938      -0.00106189      -0.02237004
C        2.46640446       4.26651046      16.34361636       10       0.00068955      -0.00128523       0.01989165
C        3.67901717       4.96662596      16.33861559       10      -0.00085229      -0.00093655      -0.02469042
C        1.25201312       6.36788482      16.33169168       10      -0.00063277      -0.00079010      -0.05907372
C        2.46632817       7.06654112      16.34629797       10      -0.00239429      -0.00050564      -0.02914511
C        0.03855054       8.46857470      16.33143665       10       0.00016014       0.00201482       0.01212206
C        1.25670089       9.16734016      16.37925535       10      -0.00167663      -0.00555632       0.02412498
C        7.31657678       0.06905615      16.39454740       10       0.00142441       0.00313250       0.02009240
C        8.52802577       0.76860629      16.40148592       10       0.00055313      -0.00093747       0.00170982
C        6.10345595       2.16638554      16.36821238       10      -0.00280113      -0.00176648      -0.01672485
C        7.31508834       2.86696040      16.38215767       10      -0.00011577       0.00132047       0.01399744
C        4.89176750       4.26638278      16.34361636       10      -0.00258881      -0.00048598       0.00814234
C        6.10426142       4.96662857      16.34629797       10       0.00103031       0.00002239      -0.02333147
C        3.67906173       6.36685248      16.34361636       10      -0.00020716       0.00038233       0.01725371
C        4.89185714       7.06647620      16.34629797       10       0.00146985      -0.00045296      -0.02333034
C        2.46620453       8.46569279      16.36821238       10       0.00077774       0.00212121      -0.00067776
C        3.67884778       9.16483530      16.38215767       10      -0.00059581      -0.00233546       0.01045115
C        9.73883987       0.06809439      16.39986810       10      -0.00178435      -0.00038202      -0.01928685
C       10.94995058       0.76852606      16.40148592       10       0.00314799       0.00218348      -0.00491498
C        8.52716403       2.16746286      16.39986810       10      -0.00077894      -0.00329933      -0.01257361
C        9.73926826       2.86601725      16.40148592       10      -0.00421985       0.00233046      -0.00031176
C        7.31599360       4.26657694      16.36821238       10      -0.00101586      -0.00159130      -0.01812352
C        8.52832420       4.96326452      16.37925535       10      -0.00327404      -0.00015719       0.02541453
C        6.10624930       6.36765569      16.33169168       10       0.00111777       0.00110163      -0.07467288
C        7.31645923       7.06604282      16.29935797       10       0.00126862       0.00295289       0.17785207
C        4.89145563       8.46571083      16.36821238       10      -0.00425770      -0.00064425      -0.02197212
C        6.10115013       9.16710912      16.37925535       10       0.00294476       0.00197101       0.03062242
O       -2.38687000       8.45377267      14.49309094       11       0.00539089      -0.00415847       0.00588845
