132
Lattice="12.12 0.0 0.0 -6.06 10.496227893867395 0.0 0.0 0.0 40.0" Properties=species:S:1:pos:R:3:tags:I:1:forces:R:3 energy=-1211.0190068673023 stress="0.0028902515223612193 1.8799575265292949e-06 -1.4404423894641996e-08 1.8799575265292949e-06 0.002878130122858759 4.3226821121560616e-07 -1.4404423894641996e-08 4.3226821121560616e-07 0.0025791708997723335" pbc="T T F"
C        0.00046807       0.00290645      10.00417539        2       0.00016955       0.00067477       0.00150587
Ti       0.00169030       1.75353574       8.71812968        0      -0.00003802       0.00028510      -0.00159049
Ti       1.51447347       0.87899714      11.30405601        0       0.00140544      -0.00018220      -0.00399624
O        0.00142730       1.74877988      12.23008024        3       0.00080672       0.00000775      -0.01796394
O        1.51382678       0.87938015       7.77942091        1       0.00075776      -0.00047537       0.00009500
C       -1.51521865       2.62940200      10.01394676        2       0.00067634       0.00072727       0.00253604
Ti      -1.51310538       4.37737397       8.72123688        0       0.00074629       0.00033233       0.00206642
Ti      -0.00379598       3.50211060      11.31825451        0       0.00089744       0.00170660      -0.00260727
O       -1.50612676       4.39289050      12.23008024        3       0.00248343       0.00363521      -0.26818932
O       -0.00151069       3.50225139       7.78253792        1       0.00162726       0.00131665      -0.00132352
C       -3.02934835       5.25042071      10.01181069        2      -0.00018176      -0.00034619       0.00194489
Ti      -3.02885207       7.00225276       8.72032158        0       0.00144417       0.00009447      -0.00109987
Ti      -1.51302311       6.12432048      11.31174806        0       0.00133152       0.00015654      -0.00236609
O       -3.03141460       7.00514598      12.23008024        3      -0.00043422       0.00003846       0.03568094
O       -1.51536633       6.12414341       7.78215034        1       0.00044168       0.00031123      -0.00056043
C       -4.54410658       7.87617485      10.00428878        2       0.00011410      -0.00010035       0.00188906
Ti      -4.54401917       9.62470921       8.71610149        0      -0.00019260       0.00104496       0.00077513
Ti      -3.03020270       8.75149195      11.30253308        0       0.00037701      -0.00020435      -0.00289188
O       -4.54455137       9.62475267      12.23008024        3      -0.00158723       0.00012994       0.01518983
O       -3.02969189       8.74875390       7.77764739        1      -0.00011863       0.00054207      -0.00017823
C        3.03085743       0.00289834      10.00259809        2       0.00003830       0.00020138       0.00337840
Ti       3.03102871       1.75240649       8.71717753        0      -0.00106992       0.00071143       0.00055905
Ti       4.54378100       0.87797270      11.30369792        0       0.00167127       0.00063520      -0.00212764
O        3.02910006       1.75070816      12.23008024        3      -0.00158894       0.00097804       0.03711242
O        4.54644038       0.87948547       7.77823721        1       0.00033374      -0.00023462       0.00047181
C        1.51522569       2.62728032      10.00730019        2      -0.00045166      -0.00039524       0.00114560
Ti       1.51540525       4.37646644       8.72026925        0       0.00104514       0.00025543       0.00016115
Ti       3.02954981       3.50127492      11.30407076        0       0.00060395       0.00133755      -0.00252845
O        1.51973662       4.37824624      12.23008024        3      -0.00054582      -0.00030004       0.03788366
O        3.03002051       3.50264617       7.78026737        1      -0.00006565       0.00009080       0.00018454
C        0.00123406       5.25246821      10.00800883        2       0.00015719      -0.00044891      -0.00010164
Ti       0.00047153       7.00112010       8.71805677        0      -0.00153142      -0.00000792      -0.00001121
Ti       1.51667971       6.12670362      11.30215158        0      -0.00008598       0.00023375      -0.00116887
O        0.00348912       7.00411628      12.23008024        3      -0.00020681       0.00006315       0.03554456
O        1.51521529       6.12525442       7.77984997        1      -0.00097631      -0.00045990       0.00040085
C       -1.51461998       7.87791055      10.00385441        2      -0.00000969       0.00117488       0.00083934
Ti      -1.51469654       9.62482614       8.71484778        0       0.00128466      -0.00028698       0.00427897
Ti      -0.00015862       8.75003187      11.30168000        0       0.00018184       0.00164902      -0.00200594
O       -1.51520390       9.62475899      12.23008024        3      -0.00057555       0.00031463       0.01685036
O        0.00103641       8.74944507       7.77782371        1       0.00017282       0.00076230      -0.00012100
C        6.05961567       0.00248073      10.00350036        2       0.00030614       0.00079614       0.00111009
Ti       6.06038181       1.75232551       8.71803436        0       0.00111125      -0.00166597      -0.00169535
Ti       7.57017229       0.87248932      11.29310731        0       0.00344419       0.00166570      -0.00136662
O        6.05877795       1.75084493      12.23008024        3       0.00153779       0.00080321       0.01034931
O        7.57736145       0.88043161       7.78031586        1       0.00055993      -0.00033784      -0.00058654
C        4.54513766       2.62651703      10.00533834        2       0.00090223      -0.00060149       0.00159203
Ti       4.54533308       4.37655342       8.71800994        0      -0.00013101      -0.00050555       0.00017743
Ti       6.06120272       3.50104645      11.30566469        0      -0.00160420      -0.00185638      -0.00251628
O        4.54369192       4.37731692      12.23008024        3       0.00114937      -0.00127478       0.01508640
O        6.06278963       3.50207667       7.78107963        1      -0.00008317       0.00044722       0.00011697
C        3.03056832       5.25103408      10.00540179        2       0.00087330       0.00106343       0.00169612
Ti       3.03066109       7.00024628       8.71623683        0      -0.00005751      -0.00060215       0.00143900
Ti       4.54491956       6.12580173      11.30356376        0      -0.00041323      -0.00078921      -0.00158324
O        3.03137588       7.00144418      12.23008024        3       0.00075560       0.00021670       0.01635275
O        4.54613230       6.12534666       7.77927871        1       0.00019810      -0.00022096       0.00019629
C        1.51563789       7.87537629      10.00405737        2      -0.00012704       0.00056031       0.00234752
Ti       1.51609523       9.62464987       8.71554978        0      -0.00185600       0.00202108      -0.00017273
Ti       3.03158052       8.75045635      11.30442065        0      -0.00042361      -0.00025056      -0.00148994
O        1.51634351       9.62247717      12.23008024        3       0.00161370       0.00223553       0.01695800
O        3.03066633       8.75004820       7.77785836        1       0.00022958       0.00103253      -0.00038883
C        9.09082735       0.00169811      10.00337571        2       0.00171145       0.00130161       0.00076216
Ti       9.09059439       1.75334608       8.72172932        0       0.00066509       0.00062273       0.00021518
Ti      10.61271771       0.87170586      11.28694794        0      -0.00137996       0.00168097      -0.00300344
O        9.08678414       1.73559510      12.23008024        3      -0.00258731      -0.00348639       0.23087189
O       10.60486145       0.88084019       7.78010159        1      -0.00015611      -0.00161331      -0.00180609
C        7.57836678       2.62877753      10.01055116        2       0.00209709       0.00198881       0.00220128
Ti       7.57552194       4.37664118       8.71727979        0      -0.00084163       0.00052371       0.00253183
Ti       9.08970459       3.51430468      11.29650882        0       0.00330659      -0.00161253       0.00017066
O        7.57036039       4.37862823      12.23008024        3       0.00129115       0.00025884      -0.01006379
O        9.09180354       3.50202120       7.78091448        1      -0.00046565       0.00064869       0.00287249
C        6.06074976       5.25141685      10.00626068        2       0.00068126      -0.00030713       0.00248512
Ti       6.06111254       7.00086656       8.71785307        0      -0.00053789      -0.00070735       0.00091846
Ti       7.57387628       6.12524523      11.30833164        0       0.00099226       0.00221498      -0.00286119
O        6.05941839       7.00250293      12.23008024        3       0.00108305       0.00026852       0.03545243
O        7.57723327       6.12451382       7.78126231        1      -0.00065137       0.00009779      -0.00017904
C        4.54600279       7.87534602      10.00414806        2      -0.00031052      -0.00082602       0.00218790
Ti       4.54512551       9.62462462       8.71364254        0       0.00079638      -0.00028256      -0.00042453
Ti       6.06036729       8.74978989      11.30390854        0      -0.00082417      -0.00102077      -0.00366479
O        4.54588518       9.62124547      12.23008024        3       0.00017701       0.00193776       0.00702446
O        6.06045668       8.74994969       7.77829685        1      -0.00023872      -0.00014061      -0.00106265
C        0.05804183       0.06826087      16.28309641       10      -0.00213951      -0.00466480      -0.03122714
C        1.26677523       0.77074213      16.29148464       10       0.00367596      -0.00035100       0.03233039
C       -1.13882625       2.15685241      16.25872574       10       0.00032708      -0.00347965       0.40426760
C        0.05398817       2.86885879      16.26636448       10      -0.00072553      -0.00075529       0.05357679
C       -2.37409029       4.29740186      16.25872019       10       0.00098216      -0.00260438       0.60033303
C       -1.16241570       4.97447183      16.26636192       10      -0.00116543      -0.00001920       0.02208781
C       -3.58484233       6.37820436      16.28309586       10       0.00178450      -0.00314676      -0.00867013
C       -2.37243541       7.07385689      16.29148444       10       0.00065265       0.00112847       0.01973059
C       -4.79546442       8.46993067      16.28120347       10      -0.00392395      -0.00250708      -0.00497780
C       -3.58370797       9.16955984      16.29249313       10       0.00369226       0.00010711      -0.01137063
C        2.47779100       0.07189220      16.29351815       10       0.00019238       0.00045423      -0.02191888
C        3.68808861       0.77271268      16.29249304       10      -0.00032682      -0.00168925      -0.00828203
C        1.26935837       2.16912961      16.28309662       10      -0.00011328      -0.00283653      -0.01949505
C        2.47704923       2.87180654      16.27403649       10      -0.00070361      -0.00071358      -0.00898647
C        0.05135864       4.27121027      16.24023660       10      -0.00149337      -0.00036494       0.18513457
C        1.26202116       4.97024187      16.25190655       10      -0.00014865      -0.00091775      -0.06310362
C       -1.16039184       6.37724710      16.28309586       10      -0.00026828      -0.00132528      -0.00212967
C        0.05166136       7.07110765      16.27403659       10       0.00116664       0.00165494      -0.02192390
C       -2.37184004       8.47149482      16.29351836       10      -0.00230596      -0.00013384       0.00654516
C       -1.16015112       9.16962778      16.29249313       10      -0.00108181      -0.00219721      -0.01774740
C        4.89826040       0.07187147      16.29351815       10       0.00024542       0.00221402       0.00723367
C        6.10910176       0.77104274      16.29148464       10      -0.00159460      -0.00237019       0.02317568
C        3.68796782       2.17203125      16.28120334       10       0.00042998      -0.00173331       0.01235033
C        4.89887177       2.87196382      16.27403649       10      -0.00238117      -0.00068867      -0.01223056
C        2.47538495       4.27112397      16.26015299       10       0.00193408      -0.00051606      -0.00760980
C        3.68727572       4.97080434      16.25736513       10      -0.00117493       0.00040902       0.01373833
C        1.26239303       6.37027789      16.26015289       10       0.00310482      -0.00039603      -0.00043125
C        2.47465006       7.06966166      16.25736502       10      -0.00088061       0.00139877       0.00515122
C        0.05120301       8.46941768      16.28120347       10       0.00146537       0.00163315       0.03055624
C        1.26264642       9.16821672      16.27403634       10      -0.00237322      -0.00179304      -0.01937709
C        7.31807221       0.06895012      16.28309641       10       0.00010299       0.00065355       0.01928103
C        8.53194315       0.77152646      16.26636429       10      -0.00041019      -0.00205709       0.03846058
C        6.10664766       2.16939494      16.28309662       10      -0.00314542      -0.00122941      -0.00243640
C        7.32291898       2.86902517      16.26636448       10      -0.00194803       0.00082770       0.03046807
C        4.89951740       4.27139787      16.26015299       10      -0.00107029      -0.00041846      -0.01528750
C        6.11337193       4.97037488      16.25190655       10       0.00101074      -0.00013539      -0.04899684
C        3.68705354       6.37021423      16.25428713       10       0.00076994       0.00094459      -0.01437215
C        4.89952771       7.06998607      16.25736502       10       0.00182115       0.00209082       0.01083762
C        2.47477409       8.46918904      16.26015272       10       0.00058331       0.00043785      -0.00232503
C        3.68723964       9.17033625      16.25190614       10      -0.00044830      -0.00154034      -0.04566579
C        9.74752250       0.07213652      16.24023655       10      -0.00260524      -0.00271403       0.13945725
C       10.96381698       0.77001352      16.26636429       10       0.00214132       0.00008574       0.05055294
C        8.51444883       2.15854784      16.25872574       10      -0.00250052      -0.00164061       0.32041080
C        9.74588619       2.86784893      16.01436648       10      -0.00342677       0.00109771      -2.01594918
C        7.32432801       4.27159910      16.24023660       10      -0.00069150       0.00057897       0.15289572
C        8.53715696       4.97545064      16.26636192       10      -0.00218015       0.00167480       0.06152237
C        6.11186560       6.37089284      16.26015289       10      -0.00100173      -0.00074859      -0.01645301
C        7.32308457       7.07188320      16.27403659       10      -0.00124032       0.00338535      -0.00694303
C        4.89991634       8.46943527      16.26015272       10      -0.00456260      -0.00190232      -0.02258357
C        6.11274223       9.16791477      16.27403634       10       0.00258301       0.00243074      -0.00026534
O        9.84048112       2.95667484      14.49262318       11       0.00496115      -0.00146681       0.00122549
H        9.46160163       2.20590553      13.97540470       12      -0.00749594       0.00559579      -0.00247653
