132
Lattice="12.12 0.0 0.0 -6.06 10.496227893867395 0.0 0.0 0.0 40.0" Properties=species:S:1:pos:R:3:tags:I:1:forces:R:3 energy=-1210.0255776256054 stress="0.002862131325567605 1.4468003521299025e-06 3.558907998628296e-06 1.4468003521299025e-06 0.0028551415819267705 7.114342602350614e-07 3.558907998628296e-06 7.114342602350614e-07 0.0022681804129538155" pbc="T T F"
C        0.00260521       0.00865739      10.00366078        2      -0.00063271       0.00096049       0.00219446
Ti       0.00152292       1.75934785       8.71638718        0      -0.00066900       0.00044567      -0.00149071
Ti       1.51823911       0.88324280      11.29217543        0       0.00028047       0.00128058       0.00024755
O        0.00269571       1.75817692      12.23008024        3      -0.00202277       0.00000953       0.09653809
O        1.51434407       0.88571091       7.77394066        1       0.00013780      -0.00031527       0.00122454
C       -1.51439801       2.63472519      10.01215798        2       0.00095363      -0.00039154      -0.00117471
Ti      -1.51458898       4.38367861       8.71962727        0       0.00149432      -0.00045641      -0.00070707
Ti      -0.00011596       3.50778498      11.30532373        0       0.00003340       0.00036402      -0.00124204
O       -1.51100759       4.38819975      12.23008024        3       0.00123669       0.00130998       0.05500170
O       -0.00110569       3.50841172       7.77863968        1       0.00094981       0.00071063      -0.00021165
C       -3.02910177       5.25891918      10.00883139        2       0.00123583       0.00066379      -0.00128380
Ti      -3.02910302       7.00780257       8.71469887        0      -0.00036607       0.00040728      -0.00284175
Ti      -1.51378603       6.13306862      11.29790332        0      -0.00038066       0.00132864      -0.00268617
O       -3.02960478       7.00965304      12.23008024        3      -0.00029543       0.00123310       0.10706843
O       -1.51477875       6.13072002       7.77660579        1       0.00100277      -0.00017208       0.00039536
C       -4.54409730       7.88275934      10.00263643        2      -0.00043033      -0.00146068       0.00061632
Ti      -4.54398513       9.63116004       8.71156810        0      -0.00027849      -0.00047049       0.00439639
Ti      -3.02831215       8.75687466      11.29291791        0       0.00051595      -0.00026040       0.00195776
O       -4.54278436       9.62979260      12.23008024        3       0.00064166      -0.00078438       0.09714756
O       -3.02889658       8.75590807       7.77264413        1      -0.00162777      -0.00058837       0.00094971
C        3.03147559       0.00954685      10.00199894        2       0.00111709      -0.00016223       0.00021913
Ti       3.03100857       1.75941272       8.71268523        0       0.00052878       0.00080551       0.00272646
Ti       4.54625835       0.88460769      11.29300053        0      -0.00001672       0.00091133       0.00266309
O        3.03162734       1.75855790      12.23008024        3       0.00076781       0.00332429       0.10840860
O        4.54672184       0.88539515       7.77340648        1       0.00012546       0.00089783      -0.00097816
C        1.51640140       2.63333766      10.00542008        2       0.00083671       0.00094357      -0.00085875
Ti       1.51524288       4.38320896       8.71551680        0       0.00050872      -0.00046758      -0.00058972
Ti       3.03087374       3.50795222      11.29373572        0       0.00050368       0.00161856       0.00139945
O        1.51973628       4.38506807      12.23008024        3       0.00062036       0.00070066       0.12273185
O        3.03028836       3.50881300       7.77431751        1      -0.00139335       0.00055184       0.00184255
C        0.00091974       5.25838105      10.00654243        2       0.00074300       0.00021864      -0.00112615
Ti       0.00028456       7.00737460       8.71403969        0       0.00304029       0.00008940       0.00033516
Ti       1.51618066       6.13303474      11.29369243        0      -0.00132878       0.00018780       0.00237737
O        0.00259182       7.00924460      12.23008024        3      -0.00041929       0.00028621       0.10997118
O        1.51505078       6.13223055       7.77431755        1       0.00024451      -0.00183868       0.00278542
C       -1.51396037       7.88371249      10.00278645        2       0.00041713      -0.00016103      -0.00022879
Ti      -1.51414858       9.63130813       8.71210296        0       0.00018365       0.00035305       0.00085395
Ti       0.00111271       8.75710862      11.29312386        0       0.00139797      -0.00009519       0.00133992
O       -1.51367371       9.63155337      12.23008024        3       0.00071067       0.00009529       0.10824976
O        0.00147360       8.75664445       7.77348150        1       0.00008605      -0.00138004      -0.00122230
C        6.06020222       0.00937164      10.00296597        2       0.00045230      -0.00047371      -0.00116345
Ti       6.06071787       1.75907213       8.71401464        0      -0.00092794       0.00037771      -0.00045174
Ti       7.57396066       0.88345829      11.29120417        0      -0.00070868      -0.00046864      -0.00004870
O        6.06008596       1.75826357      12.23008024        3       0.00008742       0.00036708       0.10990932
O        7.57765494       0.88619429       7.77641053        1       0.00127577       0.00076778       0.00123181
C        4.54562488       2.63328534      10.00337385        2       0.00040903       0.00311146      -0.00077088
Ti       4.54575998       4.38308139       8.71377965        0       0.00182758      -0.00019042      -0.00032654
Ti       6.06163572       3.50794824      11.29564253        0       0.00020584      -0.00014516       0.00094633
O        4.54450465       4.38407732      12.23008024        3       0.00086991       0.00115504       0.10884001
O        6.06233871       3.50865953       7.77604912        1       0.00203908       0.00028399       0.00053226
C        3.03061635       5.25781261      10.00321913        2       0.00117223       0.00048542      -0.00099031
Ti       3.03036964       7.00722046       8.71263606        0       0.00092074       0.00150642       0.00136264
Ti       4.54537863       6.13243876      11.29392309        0       0.00170616       0.00018963       0.00209202
O        3.03104935       7.00733540      12.23008024        3       0.00240985      -0.00101704       0.10610786
O        4.54579607       6.13236162       7.77364719        1       0.00117048       0.00052873       0.00159116
C        1.51559591       7.88243117      10.00290653        2       0.00190104      -0.00069130      -0.00021109
Ti       1.51549125       9.63162190       8.71321653        0       0.00130832      -0.00042460       0.00057061
Ti       3.03100005       8.75737519      11.29347596        0      -0.00001247       0.00015735       0.00272482
O        1.51664065       9.63173686      12.23008024        3      -0.00057499      -0.00139674       0.11047116
O        3.03086053       8.75732822       7.77390338        1       0.00160602       0.00199505       0.00241823
C        9.09101257       0.01003617      10.00585371        2       0.00046970       0.00006838       0.00007982
Ti       9.09083364       1.75991230       8.72072404        0       0.00090910       0.00052353       0.00200796
Ti      10.61046133       0.88304530      11.29299772        0       0.00090581       0.00015965      -0.00015429
O        9.09378724       1.75621661      12.23008024        3      -0.00206542      -0.00507581       0.26789409
O       10.60516191       0.88608568       7.77771329        1       0.00022507       0.00166580       0.00013315
C        7.57657158       2.63406089      10.00924737        2       0.00031481      -0.00024053       0.00099506
Ti       7.57619158       4.38319935       8.71712350        0       0.00027444       0.00056694      -0.00020301
Ti       9.09219721       3.51263742      11.31377010        0      -0.00005041       0.00021839       0.00315927
O        7.57095269       4.38668910      12.23008024        3       0.00070435      -0.00005532       0.09461353
O        9.09137239       3.50824496       7.78005381        1       0.00150960       0.00063212       0.00310613
C        6.06066036       5.25803576      10.00413551        2      -0.00010810       0.00053249      -0.00158304
Ti       6.06076571       7.00696879       8.71318801        0       0.00030845       0.00006073       0.00045687
Ti       7.57560801       6.13355530      11.29488136        0       0.00150504       0.00026050       0.00005188
O        6.05966778       7.00767029      12.23008024        3       0.00143321       0.00017914       0.10762208
O        7.57633342       6.13140679       7.77561142        1       0.00219866      -0.00092090       0.00053746
C        4.54588185       7.88213897      10.00303562        2       0.00094155      -0.00009125      -0.00070895
Ti       4.54585801       9.63147961       8.71324589        0       0.00055268       0.00091572      -0.00041498
Ti       6.06149974       8.75593636      11.29265478        0       0.00061328       0.00194941       0.00372063
O        4.54510746       9.62891558      12.23008024        3       0.00178045       0.00027965       0.11528315
O        6.06044190       8.75676294       7.77305209        1      -0.00077223       0.00081631       0.00244092
C        0.05571882       0.06062496      16.99362273       10      -0.00433678       0.00166864      -0.01026068
C        1.26494761       0.76266217      17.00201096       10      -0.00519585       0.00197101       0.00884728
C       -1.14241602       2.15045747      16.96925206       10      -0.00316785       0.00281920       0.21372083
C        0.05140172       2.86071841      16.97689080       10      -0.00293529      -0.00057631       0.02754279
C       -2.37459305       4.28754410      16.96924651       10       0.00278323      -0.00334974       0.46451999
C       -1.16371805       4.96635008      16.97688824       10       0.00271405      -0.00220916       0.00357711
C       -3.58634923       6.36928690      16.99362218       10      -0.00127187      -0.00169681      -0.03669438
C       -2.37391554       7.06548930      17.00201076       10      -0.00135596      -0.00194347      -0.01542176
C       -4.79721448       8.46179868      16.99172979       10      -0.00104280      -0.00004699      -0.02060779
C       -3.58552906       9.16132535      17.00301945       10      -0.00193430       0.00079940      -0.03856986
C        2.47576160       0.06364516      17.00404447       10      -0.00037102       0.00123783      -0.02967065
C        3.68615145       0.76426523      17.00301936       10      -0.00132476       0.00292129      -0.02742748
C        1.26710304       2.16112820      16.99362294       10      -0.00388539       0.00153778      -0.01452188
C        2.47532928       2.86334311      16.98456281       10      -0.00374022       0.00213064      -0.03288475
C        0.04967121       4.26261796      16.95076292       10      -0.00074749      -0.00340519       0.14979096
C        1.26056449       4.96180168      16.96243287       10      -0.00032947      -0.00212885      -0.08971080
C       -1.16172872       6.36892061      16.99362218       10      -0.00011659      -0.00228630      -0.04199965
C        0.05040749       7.06313728      16.98456291       10       0.00248368       0.00059416      -0.04179665
C       -2.37392625       8.46328954      17.00404468       10       0.00151064      -0.00061051      -0.02054748
C       -1.16208845       9.16127635      17.00301945       10       0.00191786       0.00046669      -0.04322081
C        4.89631270       0.06364200      17.00404447       10       0.00030425      -0.00127521      -0.02785981
C        6.10698326       0.76289710      17.00201096       10       0.00305591      -0.00227850      -0.00643103
C        3.68611560       2.16346948      16.99172966       10      -0.00198669       0.00069942      -0.01929739
C        4.89688753       2.86355945      16.98456281       10      -0.00040467       0.00149341      -0.03325409
C        2.47423156       4.26268845      16.97067931       10      -0.00075230       0.00052925      -0.04312887
C        3.68615727       4.96245708      16.96789145       10       0.00000986       0.00278124      -0.01732054
C        1.26145645       6.36214260      16.97067921       10      -0.00139486      -0.00360808      -0.04644071
C        2.47369117       7.06150929      16.96789134       10      -0.00145275      -0.00114414      -0.02975944
C        0.04943415       8.46142424      16.99172979       10      -0.00020692       0.00040418      -0.02050512
C        1.26086535       9.15994944      16.98456266       10       0.00159841      -0.00039724      -0.04446396
C        7.31633207       0.06081819      16.99362273       10       0.00266410      -0.00219990      -0.00038326
C        8.52998126       0.76300962      16.97689061       10       0.00173580      -0.00072974       0.01665650
C        6.10475785       2.16146632      16.99362294       10      -0.00020589      -0.00425359      -0.01866718
C        7.32052729       2.86096634      16.97689080       10       0.00002169      -0.00116104       0.02841478
C        4.89812591       4.26294325      16.97067931       10      -0.00136856      -0.00002181      -0.05065929
C        6.11203247       4.96179672      16.96243287       10      -0.00062598      -0.00017981      -0.06723093
C        3.68620088       6.36198410      16.96481345       10      -0.00104630       0.00191132      -0.05300717
C        4.89856452       7.06162773      16.96789134       10      -0.00167693       0.00002893      -0.01119439
C        2.47354205       8.46119708      16.97067904       10      -0.00016478      -0.00166947      -0.03358503
C        3.68599144       9.16231547      16.96243246       10      -0.00122210       0.00031150      -0.06409098
C        9.74598120       0.06429705      16.95076287       10       0.00046815      -0.00010021       0.13659100
C       10.96167593       0.76275599      16.97689061       10      -0.00166969       0.00370925       0.01246824
C        8.51318234       2.15094130      16.96925206       10       0.00022434      -0.00192265       0.25699186
C        9.74432539       2.86055769      16.72489280       10      -0.00129520      -0.00073054      -2.13804504
C        7.32289707       4.26294374      16.95076292       10       0.00110563      -0.00206813       0.12752581
C        8.53563276       4.96664900      16.97688824       10       0.00099800      -0.00202528       0.02387471
C        6.11082907       6.36238742      16.97067921       10      -0.00436787      -0.00110228      -0.05159116
C        7.32183437       7.06363865      16.98456291       10      -0.00515022      -0.00186525      -0.02788981
C        4.89872718       8.46127717      16.97067904       10      -0.00209797      -0.00071953      -0.03979439
C        6.11124748       9.15997419      16.98456266       10      -0.00237231       0.00139210      -0.02507307
O        9.77014273       2.95191113      15.14552898       11      -0.00316767      -0.00693360      -0.00155562
H        9.57489902       2.08951763      14.73146235       12       0.00154906       0.00597580       0.00316782
