131
Lattice="12.12 0.0 0.0 -6.06 10.496227893867395 0.0 0.0 0.0 40.0" Properties=species:S:1:pos:R:3:tags:I:1:forces:R:3 energy=-1204.8166849814907 stress="0.002891467771147299 6.16968110650712e-08 2.4801641634013315e-06 6.16968110650712e-08 0.002891583150276113 -2.761814714271918e-06 2.4801641634013315e-06 -2.761814714271918e-06 0.002153599859632212" pbc="T T F"
C       -0.00016569      -0.00008857      10.00431784        2       0.00055702      -0.00052633      -0.00113257
Ti       0.00054687       1.74888970       8.71273925        0       0.00058552      -0.00018469       0.00047148
Ti       1.51607271       0.87532502      11.29533053        0       0.00048875      -0.00113146       0.00049183
O       -0.00132210       1.74912823      12.23008024        3       0.00071309      -0.00047432       0.12752829
O        1.51632530       0.87215833       7.77695882        1      -0.00014633       0.00092538      -0.00085315
C       -1.51488288       2.62375033      10.00255761        2       0.00047852      -0.00018208       0.00010712
Ti      -1.51493524       4.37393390       8.71383711        0       0.00046294      -0.00019568       0.00034804
Ti       0.00065803       3.49855257      11.29249787        0       0.00051552      -0.00012842      -0.00057487
O       -1.51436460       4.36877232      12.23008024        3       0.00048245      -0.00008782       0.12845989
O       -0.00049351       3.49867851       7.77332347        1       0.00059118      -0.00032556       0.00058923
C       -3.02982574       5.24698573      10.00634302        2       0.00027664       0.00011929      -0.00130665
Ti      -3.02999896       6.99807721       8.72311768        0       0.00036504      -0.00044915      -0.00409838
Ti      -1.51376337       6.12290423      11.30310163        0      -0.00054360       0.00049382       0.00092721
O       -3.03161202       6.98919516      12.23008024        3       0.00009525      -0.00023752       0.09621916
O       -1.51613607       6.12503067       7.77917971        1       0.00103372      -0.00156360      -0.00158178
C       -4.54441001       7.87181396      10.01300446        2       0.00099257      -0.00000050      -0.00300229
Ti      -4.54394923       9.62085311       8.72152640        0       0.00027557      -0.00034005      -0.00351667
Ti      -3.02690321       8.74513128      11.33364190        0       0.00028457      -0.00024812      -0.00254497
O       -4.55219053       9.62545338      12.23008024        3      -0.00014116      -0.00013990       0.13884500
O       -3.02918466       8.74637779       7.78470777        1       0.00004186      -0.00026230      -0.00551398
C        3.03043277      -0.00055028      10.01302355        2       0.00040980      -0.00108414      -0.00309534
Ti       3.03024484       1.74948950       8.71464789        0       0.00040716      -0.00092637       0.00069593
Ti       4.54516448       0.87530521      11.29761605        0       0.00028670      -0.00140346       0.00064967
O        3.02991132       1.75247652      12.23008024        3       0.00028788      -0.00096334       0.12656019
O        4.54417912       0.87145417       7.77785625        1       0.00069300       0.00116190      -0.00118728
C        1.51499583       2.62448918      10.00305816        2       0.00086160      -0.00030632       0.00005428
Ti       1.51493965       4.37325771       8.71238490        0       0.00048155      -0.00008612      -0.00069933
Ti       3.03024236       3.49929592      11.29224058        0       0.00047840      -0.00041447      -0.00031685
O        1.51578170       4.37304770      12.23008024        3       0.00034177      -0.00027796       0.11676367
O        3.02974635       3.49685876       7.77309830        1       0.00034167       0.00050598       0.00041969
C        0.00069412       5.24717477      10.00455610        2       0.00036278       0.00017965      -0.00031925
Ti       0.00033499       6.99728203       8.71705949        0      -0.00014803      -0.00005712       0.00017396
Ti       1.51654015       6.12194658      11.29226810        0       0.00005934      -0.00022832      -0.00014347
O        0.00467045       6.99467965      12.23008024        3      -0.00018782      -0.00004403       0.09451099
O        1.51298539       6.12386571       7.77423705        1       0.00126344      -0.00087898       0.00032898
C       -1.51505891       7.87210819      10.01567667        2      -0.00034256       0.00004721      -0.00352003
Ti      -1.51556212       9.62112390       8.72342216        0       0.00041543      -0.00033704      -0.00431847
Ti       0.00029728       8.74563221      11.30417004        0      -0.00092871      -0.00000302       0.00093255
O       -1.50893543       9.62643448      12.23008024        3       0.00014930      -0.00020447       0.09524268
O       -0.00261515       8.74671035       7.77936121        1       0.00174940      -0.00042171      -0.00168741
C        6.06094418       0.00019859      10.00669673        2      -0.00010458      -0.00052307      -0.00145708
Ti       6.05977874       1.74901632       8.71313918        0      -0.00002275      -0.00025406       0.00065110
Ti       7.57520937       0.87472654      11.29286740        0       0.00020244      -0.00046557      -0.00026112
O        6.06249989       1.75176034      12.23008024        3      -0.00001083      -0.00017663       0.11524913
O        7.57443459       0.87389791       7.77339712        1       0.00061599      -0.00004808       0.00035143
C        4.54526540       2.62505116      10.00280661        2      -0.00012030      -0.00040680      -0.00001979
Ti       4.54525705       4.37320614       8.71190474        0       0.00018995      -0.00029063      -0.00133269
Ti       6.05962598       3.49857963      11.29219228        0       0.00007129      -0.00013372      -0.00048378
O        4.54539797       4.37304705      12.23008024        3       0.00049349      -0.00040571       0.10107332
O        6.06072921       3.49813071       7.77281618        1       0.00003993      -0.00014659       0.00075518
C        3.03043866       5.24771594      10.00165853        2       0.00038780      -0.00039193       0.00062070
Ti       3.03009120       6.99753557       8.71229378        0       0.00015709      -0.00058258      -0.00063942
Ti       4.54444749       6.12196547      11.29216450        0       0.00048253      -0.00028170      -0.00021862
O        3.03089751       6.99716330      12.23008024        3       0.00018729      -0.00039377       0.11199324
O        4.54638189       6.12375110       7.77296213        1      -0.00035780      -0.00072108       0.00047863
C        1.51614679       7.87189046      10.00456198        2      -0.00013800      -0.00064187      -0.00035806
Ti       1.51456261       9.62110573       8.71400329        0       0.00022062      -0.00055982       0.00037539
Ti       3.03048939       8.74619865      11.29236274        0       0.00009988      -0.00062884      -0.00051915
O        1.51955479       9.62292706      12.23008024        3       0.00012291      -0.00069145       0.11968640
O        3.02968339       8.74722837       7.77327797        1       0.00048616      -0.00059610       0.00064997
C        9.09028456      -0.00011255      10.00247111        2       0.00017868      -0.00057359       0.00009589
Ti       9.09005245       1.74923507       8.71178366        0       0.00026304      -0.00032242      -0.00081693
Ti      10.60506452       0.87436967      11.29279831        0       0.00020231      -0.00028599      -0.00023858
O        9.08997485       1.74897950      12.23008024        3       0.00003818      -0.00023140       0.12035899
O       10.60563307       0.87429134       7.77273457        1       0.00012561      -0.00021934       0.00041000
C        7.57524172       2.62376835      10.00217524        2       0.00004936      -0.00020545       0.00006851
Ti       7.57511412       4.37364205       8.71295101        0       0.00002955      -0.00011716       0.00074231
Ti       9.08987433       3.49817970      11.29282055        0       0.00039170      -0.00020540      -0.00028995
O        7.57378123       4.36972314      12.23008024        3      -0.00002060      -0.00012686       0.11228822
O        9.09037377       3.49946241       7.77327843        1       0.00019988      -0.00073678       0.00040824
C        6.05915847       5.24711681      10.00252817        2       0.00016165       0.00009881       0.00001647
Ti       6.05993858       6.99712539       8.71442830        0       0.00087894      -0.00014161       0.00069333
Ti       7.57408138       6.12184184      11.29660442        0       0.00117333       0.00034241       0.00064304
O        6.05666986       6.99487578      12.23008024        3       0.00068301      -0.00014626       0.12574503
O        7.57734256       6.12500025       7.77757557        1      -0.00083053      -0.00140976      -0.00097935
C        4.54459285       7.87175499      10.00284124        2       0.00048314      -0.00079240       0.00006624
Ti       4.54564417       9.62121300       8.71262697        0       0.00026188      -0.00069618       0.00045430
Ti       6.05974836       8.74519344      11.29514053        0       0.00095683       0.00002566       0.00028995
O        4.54450900       9.62240083      12.23008024        3       0.00051789      -0.00067345       0.11965421
O        6.06286467       8.74689447       7.77681550        1      -0.00103725      -0.00062999      -0.00080513
C        0.04114977       0.07015059      17.24717898       10       0.00593919       0.00134338      -0.00426807
C        1.25172423       0.76964662      17.23188693       10      -0.00060590      -0.00114512       0.01827168
C       -1.16872444       2.16829506      17.25249968       10      -0.00185228       0.00218859      -0.02611746
C        0.04318039       2.86808455      17.23478925       10      -0.00126864       0.00154764      -0.00255006
C       -2.38061248       4.26567387      17.24717898       10      -0.00434921       0.00189277      -0.00062442
C       -1.16978652       4.96447478      17.23188693       10      -0.00105616       0.00128333       0.02356626
C       -3.58783778       6.36837264      17.18406823       10      -0.00321781       0.00161836      -0.02130775
C       -2.38097091       7.05082830      17.14224601       10       0.00057161      -0.00041808      -0.47127503
C       -4.80171214       8.46982437      17.18406823       10       0.00293169       0.00015141      -0.02917750
C       -3.60760476       9.17445293      17.14224601       10      -0.00145947      -0.00120238      -0.45455439
C        2.46544950       0.06457788      17.18406823       10       0.00260304      -0.00203300      -0.02941486
C        3.67903025       0.76701572      17.15198955       10       0.00338849       0.00263298       0.16952019
C        1.25472388       2.16772987      17.22084396       10       0.00048546      -0.00026609      -0.03443110
C        2.46696472       2.86679062      17.19892955       10      -0.00048011       0.00125395      -0.04732805
C        0.04244714       4.26754216      17.22084396       10       0.00017595      -0.00044150      -0.03354615
C        1.25421831       4.96734075      17.19892955       10      -0.00234310       0.00088166      -0.04240758
C       -1.17396370       6.36837743      17.18406823       10       0.00105671       0.00198982      -0.03249362
C        0.04160414       7.06725500      17.15198955       10      -0.00044368      -0.00095473       0.14385763
C       -2.38182025       8.46677821      16.68944035       10       0.00117869      -0.00194172       0.20172887
C       -1.15513174       9.17383229      17.14224601       10       0.00033966       0.00280857      -0.47192517
C        4.89231299       0.06406975      17.18406823       10      -0.00044062      -0.00306050      -0.02276362
C        6.10631129       0.76908228      17.23188693       10       0.00046378       0.00234811       0.01985244
C        3.67943499       2.16428552      17.18432326       10      -0.00240571       0.00209885      -0.09967002
C        4.89208811       2.86666634      17.19892955       10      -0.00152528       0.00103765      -0.05490412
C        2.46675466       4.26693169      17.19624794       10      -0.00231467       0.00056631      -0.00729536
C        3.67961226       4.96704951      17.19124717       10      -0.00124379       0.00193418      -0.05020921
C        1.25183651       6.36857459      17.18432326       10       0.00031917       0.00026859      -0.09891015
C        2.46647956       7.06717108      17.19892955       10       0.00064689       0.00173150      -0.04452757
C        0.03922505       8.46947709      17.18406823       10      -0.00095384      -0.00155801      -0.03148476
C        1.25706415       9.16777762      17.23188693       10      -0.00061979       0.00481464       0.02150688
C        7.31681443       0.06968222      17.24717898       10      -0.00170991      -0.00160471      -0.00542892
C        8.52820231       0.76920598      17.25411750       10      -0.00052689       0.00148607      -0.01867788
C        6.10402932       2.16731594      17.22084396       10      -0.00165189       0.00361002      -0.03647605
C        7.31552120       2.86790471      17.23478925       10      -0.00270533      -0.00049646      -0.01159258
C        4.89241808       4.26684034      17.19624794       10      -0.00115117       0.00186352      -0.01489619
C        6.10477885       4.96733558      17.19892955       10      -0.00243655       0.00154012      -0.05257782
C        3.67937908       6.36741853      17.19624794       10      -0.00177279       0.00018621      -0.00927309
C        4.89205767       7.06736124      17.19892955       10      -0.00086953       0.00167707      -0.04768377
C        2.46675304       8.46648488      17.22084396       10      -0.00312590      -0.00113040      -0.03565792
C        3.67902784       9.16566745      17.23478925       10      -0.00031385       0.00311208      -0.00405213
C        9.73906518       0.06888872      17.25249968       10       0.00192650       0.00014090      -0.03065691
C       10.94990635       0.76945573      17.25411750       10      -0.00114341      -0.00148886      -0.01947591
C        8.52738477       2.16817614      17.25249968       10      -0.00325229       0.00286609      -0.02602677
C        9.73929478       2.86684213      17.25411750       10       0.00226712      -0.00084649      -0.02032018
C        7.31636229       4.26739371      17.22084396       10      -0.00251838       0.00074041      -0.03935607
C        8.52841750       4.96448553      17.23188693       10       0.00237381      -0.00028137       0.02085167
C        6.10673797       6.36869999      17.18432326       10      -0.00135006      -0.00195350      -0.10119051
C        7.31667132       7.06759469      17.15198955       10       0.00034632      -0.00197074       0.16868295
C        4.89139171       8.46671664      17.22084396       10       0.00138282      -0.00019798      -0.03338517
C        6.10077401       9.16837898      17.23188693       10      -0.00295349      -0.00215356       0.01485069
O       -2.38866982       8.47108511      15.33468749       11       0.00356369      -0.00040131      -0.00108206
