131
Lattice="12.12 0.0 0.0 -6.06 10.496227893867395 0.0 0.0 0.0 40.0" Properties=species:S:1:pos:R:3:tags:I:1:forces:R:3 energy=-1205.1748118478272 stress="0.0028102466644674786 -6.173829537420985e-06 4.94464125144128e-06 -6.173829537420985e-06 0.002802052258504457 1.402376816644961e-06 4.94464125144128e-06 1.402376816644961e-06 0.0025879219950602113" pbc="T T F"
C        0.00043631      -0.00011255      10.00180845        2       0.00025502       0.00031183      -0.00003018
Ti       0.00162741       1.74902065       8.70069852        0       0.00143724      -0.00008151       0.00314770
Ti       1.52170767       0.88021899      11.31462152        0       0.00185953      -0.00188362       0.00302317
O        0.00109481       1.74694277      12.23159545        3      -0.00032106       0.00074095      -0.02725798
O        1.51720211       0.87105021       7.78142820        1       0.00172258      -0.00041656       0.00132271
C       -1.51477121       2.62334004      10.00075952        2       0.00088845      -0.00057949      -0.00087929
Ti      -1.51430295       4.37656113       8.70113433        0       0.00000171       0.00091419       0.00234336
Ti      -0.00241917       3.49837696      11.32639715        0       0.00254287       0.00047422      -0.00163988
O       -1.51518534       4.37206702      12.23159545        3       0.00093849      -0.00358888      -0.00201498
O       -0.00026197       3.49836428       7.77640880        1       0.00043292      -0.00015487      -0.00131593
C       -3.03156309       5.24279551       9.99837299        2       0.00010573      -0.00230146      -0.00071105
Ti      -3.03260991       6.99218227       8.71792959        0       0.00073197       0.00035133       0.00454114
Ti      -1.51066298       6.12814569      11.31852715        0      -0.00204907       0.00223593       0.00408361
O       -3.03985877       6.96269827      12.23159545        3       0.00112636      -0.00213607      -0.19063667
O       -1.51690394       6.12809313       7.78322008        1      -0.00007152       0.00059663       0.00175279
C       -4.54605326       7.86958529      10.01543632        2       0.00051011      -0.00047012       0.00297907
Ti      -4.54734124       9.62290005       8.71499121        0       0.00073532       0.00044539       0.00473370
Ti      -3.00461594       8.73748635      11.44570500        0       0.00601164      -0.00194832      -0.00452235
O       -4.55387109       9.62816693      12.23159545        3      -0.00130942       0.00142646       0.02662603
O       -3.02823891       8.74625534       7.80789894        1      -0.00009196       0.00052581       0.00248933
C        3.03226579       0.00294059      10.01555116        2       0.00098948       0.00072393       0.00213929
Ti       3.02937047       1.74604251       8.70906715        0       0.00184400       0.00043723       0.00470163
Ti       4.54517393       0.89183185      11.30349789        0       0.00234596      -0.00645625       0.00682140
O        3.02825881       1.75621103      12.23159545        3       0.00132734       0.00085783       0.01767820
O        4.54340832       0.87226696       7.78007916        1       0.00034904      -0.00075507       0.00156847
C        1.51330582       2.62816638       9.99989385        2       0.00141303       0.00107129       0.00048935
Ti       1.51366978       4.37387626       8.70026360        0       0.00114885       0.00140314       0.00267035
Ti       3.02866752       3.50020946      11.32016483        0       0.00014929       0.00081653      -0.00308109
O        1.51233675       4.37189528      12.23159545        3       0.00190222       0.00046136      -0.00421989
O        3.02902364       3.49528742       7.77691148        1      -0.00025595      -0.00009868      -0.00258947
C        0.00053723       5.24480363       9.99982645        2       0.00111303      -0.00057274       0.00094327
Ti      -0.00141213       6.99839933       8.70914688        0      -0.00167833       0.00173164       0.00572251
Ti       1.51683218       6.12217876      11.31661361        0      -0.00032780       0.00032188       0.00033632
O        0.01150968       6.99050630      12.23159545        3       0.00173552      -0.00032885      -0.02428916
O        1.51104991       6.12547401       7.77881823        1      -0.00126672       0.00115677      -0.00058086
C       -1.51533770       7.87321960      10.02743133        2       0.00066228      -0.00015331       0.00000405
Ti      -1.51090165       9.62701223       8.71834991        0       0.00040859       0.00020040       0.00455391
Ti      -0.00203598       8.74090570      11.31861897        0      -0.00397709       0.00266880       0.00463896
O       -1.48353032       9.65439409      12.23159545        3       0.00203658       0.00027725      -0.26544373
O       -0.00485482       8.74608334       7.78319682        1      -0.00001380       0.00091692       0.00194856
C        6.06570444       0.00532919       9.99681954        2       0.00260870       0.00177888      -0.00033279
Ti       6.06055158       1.74838919       8.69841044        0       0.00014232       0.00051758       0.00206730
Ti       7.57414025       0.87511838      11.32369294        0       0.00077843       0.00108884      -0.00328633
O        6.06324830       1.75158509      12.23159545        3       0.00305890       0.00260248      -0.02104508
O        7.57591388       0.87444649       7.77692273        1       0.00114285       0.00031666      -0.00247497
C        4.54714755       2.63147390      10.00006566        2       0.00082153       0.00148645      -0.00139341
Ti       4.54425541       4.37398272       8.69160952        0       0.00008870       0.00001773       0.00303093
Ti       6.06078305       3.49912609      11.31753022        0      -0.00115586       0.00154535      -0.00323594
O        4.54427512       4.37379846      12.23159545        3      -0.00068574       0.00079609      -0.02253570
O        6.06008043       3.49934982       7.77362807        1       0.00071662       0.00018211      -0.00333534
C        3.03061665       5.24781728      10.00153428        2      -0.00007420       0.00043075      -0.00181325
Ti       3.02904553       6.99841302       8.70079774        0      -0.00043954      -0.00112452       0.00277526
Ti       4.54357764       6.12332943      11.32044731        0       0.00030746       0.00033589      -0.00324852
O        3.02978292       7.00011199      12.23159545        3       0.00071020      -0.00095519      -0.00618924
O        4.54784691       6.12599299       7.77753757        1       0.00022091       0.00076978      -0.00278498
C        1.51844879       7.87346492      10.00053264        2       0.00182998       0.00026440       0.00079095
Ti       1.51312488       9.62006471       8.70085018        0      -0.00020471       0.00034699       0.00240500
Ti       3.03004310       8.74950634      11.32633612        0       0.00160059      -0.00161022      -0.00175495
O        1.51617803       9.62258469      12.23159545        3       0.00431149       0.00182219      -0.00708288
O        3.03074639       8.74710851       7.77665401        1       0.00082737       0.00030933      -0.00132454
C        9.09160180       0.00024690      10.00091180        2       0.00139519       0.00017283      -0.00068152
Ti       9.09158878       1.74908192       8.70287650        0       0.00144566      -0.00030210       0.00378715
Ti      10.60754211       0.87351722      11.31863240        0       0.00073434       0.00010647      -0.00179830
O        9.09249766       1.74837496      12.23159545        3       0.00139010      -0.00036012      -0.01478501
O       10.60641670       0.87392583       7.77636078        1       0.00133847      -0.00020440      -0.00175006
C        7.57639405       2.62421195      10.00028505        2       0.00037909       0.00024491      -0.00110085
Ti       7.57612145       4.37402448       8.69883257        0       0.00028034       0.00053535       0.00211886
Ti       9.08899545       3.49972170      11.32400618        0      -0.00002679      -0.00027539      -0.00311253
O        7.57526499       4.37090667      12.23159545        3      -0.00032458      -0.00336737      -0.01501195
O        9.09070534       3.49898345       7.77723018        1       0.00082363      -0.00046297      -0.00270512
C        6.05515056       5.24334218      10.00080981        2      -0.00029605      -0.00033033      -0.00126758
Ti       6.06282575       6.99994737       8.71027711        0       0.00057990      -0.00096339       0.00408395
Ti       7.56171247       6.11606852      11.30389930        0       0.00540137       0.00045983       0.00607975
O        6.05443607       6.99520472      12.23159545        3       0.00039711      -0.00057728       0.02217938
O        7.57659719       6.12600867       7.78064350        1       0.00093450       0.00112675       0.00121828
C        4.54142178       7.87177944      10.00111139        2       0.00024567      -0.00093314       0.00030040
Ti       4.54618181       9.62070152       8.70048093        0       0.00123316      -0.00046770       0.00353293
Ti       6.05973462       8.73871636      11.31526910        0       0.00261355       0.00065889       0.00338543
O        4.54912380       9.62331574      12.23159545        3      -0.00052371       0.00072967      -0.01923784
O        6.06425875       8.74684862       7.78176810        1       0.00172325      -0.00048836       0.00131806
C        0.04094153       0.07006258      16.25395735       10      -0.00571813      -0.00165524      -0.01636377
C        1.24742167       0.77083125      16.23866530       10       0.00606984       0.00029574       0.03944270
C       -1.16871368       2.16673237      16.25927805       10      -0.00409722       0.00124546      -0.01260229
C        0.04211791       2.86649792      16.24156762       10      -0.00319409      -0.00127424       0.01943475
C       -2.37960929       4.26507448      16.25395735       10      -0.00376691      -0.00142978       0.02726238
C       -1.17012099       4.95955907      16.23866530       10      -0.00176436       0.00143494       0.01692025
C       -3.58737306       6.36730571      16.19084660       10      -0.00075305      -0.00003274       0.07815328
C       -2.38126652       7.04775373      16.14902438       10       0.00008203       0.00316814      -0.28878633
C       -4.80229068       8.47167877      16.19084660       10      -0.00818243      -0.00164308       0.05739134
C       -3.61182740       9.17612045      16.14902438       10       0.00637602       0.00034549      -0.19295700
C        2.46290668       0.06336039      16.19084660       10       0.00178535      -0.00569382       0.05641741
C        3.67809368       0.76886456      16.15876792       10      -0.00168581      -0.00040892      -0.02858895
C        1.25317589       2.16798252      16.22762233       10      -0.00267463      -0.00175136      -0.00756361
C        2.46522090       2.86596252      16.20570792       10      -0.00366324       0.00134463       0.01866308
C        0.04322665       4.26573599      16.22762233       10      -0.00280993      -0.00030519       0.02937671
C        1.25353572       4.96549828      16.20570792       10      -0.00157239      -0.00030082       0.00890211
C       -1.17459321       6.36749696      16.19084660       10      -0.00277874       0.00166543       0.11640183
C        0.04406004       7.06541600      16.15876792       10      -0.00106710      -0.00222464      -0.05873057
C       -2.38625136       8.46640201      15.69621872       10       0.00024546       0.00024478       0.47441684
C       -1.15516215       9.17382843      16.14902438       10      -0.00134083      -0.00103434      -0.32637534
C        4.89191223       0.06236277      16.19084660       10      -0.00076042      -0.00114684       0.07871748
C        6.10918897       0.76979171      16.23866530       10      -0.00108076       0.00116730       0.02356901
C        3.67793429       2.16389386      16.19110163       10      -0.00330451       0.00060409      -0.01950024
C        4.89232958       2.86602083      16.20570792       10      -0.00126280       0.00107060       0.01855233
C        2.46648779       4.26696102      16.20302631       10      -0.00150881       0.00110536       0.00196974
C        3.67918290       4.96661099      16.19802554       10      -0.00121377       0.00046110      -0.01361117
C        1.25221341       6.36783431      16.19110163       10      -0.00033032       0.00012130       0.02706543
C        2.46705265       7.06788279      16.20570792       10      -0.00030869       0.00122392       0.00334796
C        0.03813504       8.46972116      16.19084660       10      -0.00132981      -0.00252796       0.10947312
C        1.25995057       9.16970280      16.23866530       10      -0.00213512       0.00146259       0.00860135
C        7.31671614       0.06827881      16.25395735       10       0.00084846       0.00179140       0.03668958
C        8.52996072       0.76944092      16.26089587       10       0.00088526       0.00211538       0.02238922
C        6.10391591       2.16698498      16.22762233       10      -0.00022688       0.00108237       0.01346511
C        7.31643835       2.86655996      16.24156762       10       0.00025494      -0.00080881       0.01503344
C        4.89038680       4.26715073      16.20302631       10      -0.00146405       0.00183886      -0.01470648
C        6.10498128       4.96628356      16.20570792       10      -0.00192987       0.00092488       0.02143465
C        3.67856188       6.36664744      16.20302631       10      -0.00143408      -0.00041712       0.00761799
C        4.89140598       7.06840539      16.20570792       10      -0.00151880      -0.00066877       0.01219188
C        2.46766947       8.46605440      16.22762233       10      -0.00149523       0.00124036       0.03891224
C        3.67921987       9.16681104      16.24156762       10      -0.00208761       0.00191221       0.02063245
C        9.73966022       0.06914718      16.25927805       10      -0.00474025      -0.00341413      -0.00395385
C       10.94830281       0.76983109      16.26089587       10       0.00658126       0.00084396       0.03760519
C        8.52898287       2.16649844      16.25927805       10      -0.00108212      -0.00065740       0.00207587
C        9.73979644       2.86419211      16.26089587       10      -0.00103416      -0.00267467       0.02435808
C        7.31589963       4.26609577      16.22762233       10      -0.00412367      -0.00133838       0.00681133
C        8.52876880       4.95993287      16.23866530       10      -0.00046331      -0.00300890       0.02345814
C        6.10569432       6.36898044      16.19110163       10      -0.00167045       0.00019586      -0.01810795
C        7.31437760       7.06635843      16.15876792       10       0.00000121      -0.00278349      -0.03176231
C        4.88988720       8.46724378      16.22762233       10      -0.00506915      -0.00284645       0.00237141
C        6.09721793       9.17064563      16.23866530       10       0.00417541       0.00306794       0.03534745
O       -2.40055174       8.45786636      14.37087422       11      -0.00237439       0.00270728       0.00130541
