130
Lattice="12.12 0.0 0.0 -6.06 10.496227893867395 0.0 0.0 0.0 40.0" Properties=species:S:1:pos:R:3:tags:I:1:forces:R:3 energy=-1200.4961030929621 stress="0.0027975090472108586 -2.049865743435059e-07 2.5808914642470135e-08 -2.049865743435059e-07 0.002798046616639712 9.558551523661157e-08 2.5808914642470135e-08 9.558551523661157e-08 0.0027138683086949987" pbc="T T F"
C       -0.00008635      -0.00016419       9.99289413        2       0.00027714       0.00014145       0.00472044
Ti       0.00005168       1.74931748       8.69831331        0      -0.00003767       0.00002162       0.00667901
Ti       1.51532098       0.87469945      11.31371488        0       0.00014945       0.00019124       0.00228179
O        0.00036628       1.74715573      12.23159545        3      -0.00022893      -0.00008633      -0.06605949
O        1.51510444       0.87473206       7.77438637        1      -0.00000493      -0.00010770       0.00334397
C       -1.51568170       2.62450578       9.99316646        2       0.00017585      -0.00040002       0.00522671
Ti      -1.51491279       4.37333729       8.69802414        0       0.00023345      -0.00000480       0.00774399
Ti      -0.00011850       3.49879413      11.31317790        0       0.00025815       0.00008991       0.00307198
O       -1.51378336       4.37103937      12.23159545        3      -0.00076820      -0.00038341      -0.03885563
O        0.00000685       3.49903029       7.77454427        1      -0.00008153       0.00099362       0.00456768
C       -3.03094017       5.24764222       9.99434544        2      -0.00012066      -0.00012976       0.00621966
Ti      -3.03002611       6.99760083       8.69802924        0       0.00008430       0.00027795       0.00787553
Ti      -1.51583199       6.12228158      11.31355879        0      -0.00027483      -0.00010023       0.00529335
O       -3.03129072       6.99945373      12.23159545        3      -0.00065991      -0.00035606      -0.04041374
O       -1.51494790       6.12284911       7.77478219        1       0.00036684       0.00030809       0.00642979
C       -4.54500523       7.87136435       9.99325267        2      -0.00030915       0.00017916       0.00523610
Ti      -4.54504602       9.62160656       8.69820395        0       0.00011014      -0.00000089       0.00697798
Ti      -3.03000057       8.74673598      11.31310576        0      -0.00044440      -0.00001584       0.00294053
O       -4.54676144       9.62318908      12.23159545        3      -0.00031867      -0.00004047      -0.06153152
O       -3.02976664       8.74670417       7.77451568        1       0.00084403      -0.00053971       0.00478613
C        3.03080880       0.00016758       9.99318168        2      -0.00065022       0.00045727       0.00520096
Ti       3.02989384       1.74935476       8.69772064        0      -0.00052625      -0.00043590       0.00561132
Ti       4.54551084       0.87552261      11.31328083        0       0.00000965       0.00042166       0.00389913
O        3.02667524       1.74770414      12.23159545        3       0.00040164       0.00031323      -0.03396087
O        4.54519133       0.87466440       7.77448202        1       0.00034874      -0.00049353       0.00449803
C        1.51557809       2.62458182       9.99313393        2       0.00006740      -0.00045203       0.00516544
Ti       1.51496146       4.37332610       8.69820738        0      -0.00035372       0.00006666       0.00746142
Ti       3.03088865       3.49889361      11.31304256        0       0.00044432       0.00003078       0.00458386
O        1.51409096       4.37071366      12.23159545        3       0.00050838      -0.00021446      -0.03865130
O        3.03009663       3.49894723       7.77448012        1      -0.00017376       0.00057025       0.00431104
C       -0.00012794       5.24837492       9.99433609        2       0.00017614      -0.00054178       0.00688171
Ti       0.00003166       6.99747130       8.69865660        0      -0.00004288       0.00019704       0.00871299
Ti       1.51581082       6.12234784      11.31376351        0       0.00038427      -0.00031303       0.00562705
O        0.00019715       6.99763641      12.23159545        3      -0.00011236       0.00016557      -0.06201229
O        1.51498464       6.12286516       7.77487468        1      -0.00032613       0.00045122       0.00634332
C       -1.51497954       7.87195678       9.99445802        2      -0.00025462       0.00018770       0.00677117
Ti      -1.51511206       9.62154521       8.69821519        0       0.00000362      -0.00018709       0.00813329
Ti       0.00004205       8.74778326      11.31379173        0      -0.00012795       0.00042172       0.00499814
O       -1.51760236       9.62239913      12.23159545        3       0.00001773       0.00076099      -0.04095894
O        0.00003289       8.74678131       7.77486032        1       0.00012582      -0.00040999       0.00647681
C        6.06010854       0.00108718       9.99423981        2      -0.00015617       0.00038701       0.00625040
Ti       6.05995134       1.74943552       8.69728450        0       0.00008918      -0.00022100       0.00580365
Ti       7.57451814       0.87567527      11.31269336        0      -0.00035002       0.00056939       0.00469868
O        6.05951809       1.74899445      12.23159545        3       0.00017073       0.00054049      -0.04213155
O        7.57485502       0.87470377       7.77440478        1      -0.00029941      -0.00046491       0.00491351
C        4.54545547       2.62438172       9.99375307        2      -0.00028107       0.00013184       0.00537576
Ti       4.54504838       4.37337319       8.69733736        0      -0.00013139      -0.00008148       0.00532970
Ti       6.05999748       3.49875577      11.30699865        0      -0.00023078       0.00015370       0.00235919
O        4.54441123       4.37300406      12.23159545        3       0.00046281      -0.00042726      -0.04370723
O        6.06005284       3.49880298       7.77367305        1      -0.00001203       0.00010375       0.00339824
C        3.03101682       5.24773431       9.99425265        2      -0.00006619      -0.00024582       0.00656985
Ti       3.03006060       6.99756984       8.69823675        0      -0.00006076       0.00034617       0.00772691
Ti       4.54546309       6.12198064      11.31233366        0       0.00028619      -0.00083445       0.00444621
O        3.03148922       6.99918988      12.23159545        3       0.00084207      -0.00039883      -0.04344052
O        4.54495595       6.12267250       7.77444953        1      -0.00044976      -0.00002486       0.00474911
C        1.51498795       7.87212629       9.99461158        2       0.00046549       0.00007440       0.00705539
Ti       1.51511156       9.62154877       8.69822556        0       0.00009656      -0.00008486       0.00838110
Ti       3.03015295       8.74696962      11.31321973        0       0.00025064      -0.00023924       0.00311960
O        1.51731445       9.62232865      12.23159545        3       0.00021042       0.00083009      -0.04450720
O        3.02979294       8.74671821       7.77458453        1      -0.00085121      -0.00047146       0.00510729
C        9.08923629       0.00033871       9.99331417        2       0.00060209       0.00035117       0.00534255
Ti       9.09010907       1.74934386       8.69747802        0       0.00056655      -0.00038353       0.00629899
Ti      10.60445328       0.87483471      11.31394870        0      -0.00000773       0.00014017       0.00212943
O        9.09329155       1.74785668      12.23159545        3      -0.00035735       0.00055952      -0.03104193
O       10.60486081       0.87472841       7.77445696        1      -0.00007078      -0.00006206       0.00351798
C        7.57463081       2.62451734       9.99416294        2      -0.00024177       0.00005104       0.00513739
Ti       7.57491048       4.37339901       8.69723613        0       0.00021225      -0.00012566       0.00563497
Ti       9.08917951       3.49890082      11.31235095        0      -0.00050705       0.00049480       0.00430815
O        7.57502320       4.37319814      12.23159545        3      -0.00018975      -0.00017279      -0.04583710
O        9.08987027       3.49891606       7.77437928        1       0.00026825       0.00054115       0.00453577
C        6.06015635       5.24755279       9.99439865        2      -0.00027960      -0.00016051       0.00541443
Ti       6.05999434       6.99757607       8.69758394        0       0.00008412       0.00077942       0.00579349
Ti       7.57474944       6.12204660      11.31221082        0      -0.00020821      -0.00063195       0.00347853
O        6.06011826       7.00084517      12.23159545        3       0.00022890      -0.00049363      -0.03113874
O        7.57505543       6.12263833       7.77442267        1       0.00049214      -0.00001067       0.00457003
C        4.54502998       7.87137376       9.99335697        2       0.00045613       0.00007352       0.00538792
Ti       4.54508492       9.62157069       8.69821113        0      -0.00013799       0.00010103       0.00704689
Ti       6.05997646       8.74615074      11.31391392        0       0.00005403      -0.00054238       0.00211966
O        4.54731269       9.62314898      12.23159545        3       0.00009831      -0.00005204      -0.05579581
O        6.05997753       8.74666814       7.77446936        1      -0.00000665      -0.00010092       0.00358574
C        0.04481453       0.06756060      16.02633229       10       0.00532192       0.00101883      -0.03383510
C        1.25647712       0.76691377      16.02633229       10       0.00312026       0.00412251      -0.01755765
C       -1.16654308       2.16616641      16.02633229       10       0.00446450      -0.00015500      -0.01351209
C        0.04494215       2.86519420      16.02633229       10      -0.00045874       0.00257650       0.00700562
C       -2.37877058       4.26565359      16.02633229       10       0.00317624      -0.00249101       0.01217303
C       -1.16693745       4.96505262      16.02633229       10       0.00065576       0.00216299       0.00506037
C       -3.59101889       6.36572125      16.02633229       10       0.00352937      -0.00161517       0.01067568
C       -2.37913132       7.06516639      16.02633229       10      -0.00019922      -0.00095082       0.00492803
C       -4.80292410       8.46546576      16.02633229       10       0.00069105      -0.00289297      -0.00828767
C       -3.59176982       9.16476563      16.02633229       10      -0.00006017      -0.00175856       0.00749338
C        2.46821558       0.06709249      16.02633229       10       0.00338088       0.00473242      -0.01345084
C        3.68025887       0.76722891      16.02633229       10       0.00289504       0.00204135       0.01226874
C        1.25632249       2.16601552      16.02633229       10       0.00058843       0.00359318      -0.01713431
C        2.46870010       2.86596723      16.02633229       10       0.00090111       0.00044456       0.01213641
C        0.04507920       4.26594625      16.02633229       10       0.00002944       0.00216224       0.02578503
C        1.25700052       4.96509657      16.02633229       10      -0.00013572       0.00038338       0.00298281
C       -1.16692820       6.36497189      16.02633229       10      -0.00062060       0.00376504       0.02538224
C        0.04510972       7.06485209      16.02633229       10      -0.00157563      -0.00067894       0.00292169
C       -2.37859959       8.46441794      16.02633229       10      -0.00027896       0.00007818       0.02826017
C       -1.16728958       9.16449140      16.02633229       10      -0.00046804      -0.00291234       0.00169007
C        4.89251509       0.06732754      16.02633229       10       0.00087872       0.00366608       0.01643271
C        6.10475779       0.76700232      16.02633229       10       0.00176233       0.00102846       0.01387823
C        3.68004609       2.16624009      16.02633229       10      -0.00011126       0.00011262       0.00247144
C        4.89271971       2.86660287      16.02633229       10       0.00177491      -0.00248679       0.02141423
C        2.46868959       4.26566084      16.02633229       10       0.00017866       0.00006479       0.01452715
C        3.68068120       4.96606287      16.02633229       10       0.00045940      -0.00062518       0.01741933
C        1.25716840       6.36515801      16.02633229       10      -0.00140186       0.00210887       0.02421106
C        2.46936168       7.06533147      16.02633229       10       0.00021115      -0.00053356       0.00303909
C        0.04518809       8.46447278      16.02633229       10      -0.00177472      -0.00086037       0.02388533
C        1.25744032       9.16456420      16.02633229       10      -0.00105250      -0.00352364       0.00183068
C        7.31714981       0.06745981      16.02633229       10       0.00034121       0.00302034       0.01540581
C        8.52924812       0.76740615      16.02633229       10       0.00036896      -0.00020223       0.01451521
C        6.10465281       2.16649656      16.02633229       10       0.00210154       0.00066177       0.00612667
C        7.31675411       2.86662624      16.02633229       10       0.00107244      -0.00367203       0.02174952
C        4.89254541       4.26625160      16.02633229       10       0.00079118      -0.00079088       0.00701385
C        6.10489907       4.96605944      16.02633229       10       0.00002983      -0.00190398       0.02237489
C        3.68116505       6.36581562      16.02633229       10      -0.00084501      -0.00096279       0.01182147
C        4.89332384       7.06565086      16.02633229       10      -0.00099715      -0.00355234       0.01644992
C        2.46904633       8.46464294      16.02633229       10      -0.00332430      -0.00237098       0.03060145
C        3.68219364       9.16510696      16.02633229       10      -0.00383839      -0.00495940       0.00564393
C        9.74147612       0.06738407      16.02633229       10      -0.00006509       0.00147904      -0.00615555
C       10.95324246       0.76716441      16.02633229       10      -0.00081986       0.00286680      -0.01459372
C        8.52948398       2.16638891      16.02633229       10       0.00051335       0.00089293       0.00541871
C        9.74100662       2.86608360      16.02633229       10      -0.00359927       0.00199971       0.01518353
C        7.31719316       4.26630621      16.02633229       10      -0.00068291      -0.00191273       0.00825952
C        8.52933028       4.96589810      16.02633229       10      -0.00341735       0.00289389       0.02088938
C        6.10505514       6.36632467      16.02633229       10       0.00013000      -0.00215170       0.00647726
C        7.31700904       7.06534169      16.02633229       10      -0.00458316       0.00032035       0.01702923
C        4.89336725       8.46557666      16.02633229       10      -0.00357557      -0.00417037      -0.00446722
C        6.10537552       9.16471227      16.02633229       10      -0.00569371      -0.00109554      -0.01145168
