132
Lattice="12.12 0.0 0.0 -6.06 10.496227893867395 0.0 0.0 0.0 40.0" Properties=species:S:1:pos:R:3:tags:I:1:forces:R:3 energy=-1209.4600717489097 stress="0.002839085735923121 3.2234700912668914e-06 -3.132576620650582e-06 3.2234700912668914e-06 0.0028422757639481656 4.174194162319457e-06 -3.132576620650582e-06 4.174194162319457e-06 0.0021459992784884714" pbc="T T F"
C       -0.00199290       0.01264114      10.00449985        2      -0.00068379       0.00074388       0.00164832
Ti      -0.00162865       1.76138534       8.71674256        0      -0.00100832       0.00032559      -0.00373497
Ti       1.51295449       0.88717531      11.29144663        0      -0.00007150       0.00066567      -0.00048202
O       -0.00001380       1.76115606      12.23008024        3       0.00198822      -0.00055967       0.09130682
O        1.51207092       0.88759107       7.77285617        1      -0.00604718       0.00314010       0.00270770
C       -1.51730745       2.63673276      10.00841139        2       0.00025145      -0.00023325       0.00382829
Ti      -1.51737106       4.38611347       8.71529246        0       0.00115571       0.00201199      -0.00151669
Ti      -0.00479248       3.51172060      11.30399316        0      -0.00417471      -0.00128674      -0.00129152
O       -1.51853736       4.38892633      12.23008024        3       0.00264756       0.00340251       0.08470554
O       -0.00308132       3.51068912       7.77646845        1      -0.00249104       0.00110537      -0.00224234
C       -3.03263226       5.26212317      10.00380177        2      -0.00038142      -0.00138565       0.00336708
Ti      -3.03252692       7.01037725       8.71142045        0       0.00068888       0.00339931       0.00043818
Ti      -1.51778664       6.13613923      11.29353285        0      -0.00153999      -0.00122709       0.00023415
O       -3.03312463       7.01058367      12.23008024        3      -0.00270681       0.00199668       0.11153695
O       -1.51743291       6.13440100       7.77307757        1      -0.00030600      -0.00372029       0.00367887
C       -4.54741782       7.88524205      10.00177019        2      -0.00013307       0.00031672       0.00124580
Ti      -4.54723195       9.63401079       8.71074945        0      -0.00023466       0.00082937       0.00629096
Ti      -3.03273182       8.75960411      11.29152916        0       0.00091931      -0.00072267       0.00124227
O       -4.54786061       9.63416956      12.23008024        3       0.00088372      -0.00274179       0.11761957
O       -3.03235489       8.75968932       7.77143188        1      -0.00439164      -0.00136970       0.00033663
C        3.02795881       0.01231221      10.00178306        2       0.00058184       0.00026813       0.00130248
Ti       3.02786993       1.76195698       8.71107673        0      -0.00112656      -0.00058565       0.00356681
Ti       4.54229670       0.88739021      11.29203412        0       0.00209475       0.00055902      -0.00083037
O        3.02797380       1.76224607      12.23008024        3       0.00145737       0.00299009       0.09981771
O        4.54284977       0.88739606       7.77190885        1      -0.00082673       0.00360753      -0.00164663
C        1.51293200       2.63649252      10.00411947        2      -0.00031374      -0.00039625       0.00087494
Ti       1.51201404       4.38552719       8.71359101        0       0.00091183       0.00077378       0.00164179
Ti       3.02732376       3.51115666      11.29195927        0      -0.00152590      -0.00011618       0.00090578
O        1.51535094       4.38831296      12.23008024        3       0.00247486       0.00084574       0.11926633
O        3.02702230       3.51138059       7.77240583        1      -0.00096562       0.00148224       0.00186978
C       -0.00260088       5.26097667      10.00456289        2       0.00020100       0.00007793       0.00151087
Ti      -0.00267148       7.01004571       8.71162572        0       0.00036655       0.00241840       0.00378986
Ti       1.51237237       6.13596635      11.29164423        0      -0.00181762      -0.00118106       0.00235698
O       -0.00161032       7.01165320      12.23008024        3      -0.00005948      -0.00017034       0.11051134
O        1.51217345       6.13498207       7.77265834        1      -0.00003597      -0.00066692       0.00272920
C       -1.51784106       7.88573445      10.00164923        2       0.00026047       0.00206762       0.00026468
Ti      -1.51720416       9.63420380       8.71189451        0      -0.00207041       0.00026461      -0.00379269
Ti      -0.00290990       8.76001354      11.29189345        0       0.00275286       0.00000936      -0.00186886
O       -1.51728490       9.63403754      12.23008024        3       0.00121768       0.00125231       0.11466562
O       -0.00203938       8.75976275       7.77257149        1       0.00306994      -0.00273107      -0.00214171
C        6.05654132       0.01267134      10.00214593        2      -0.00249794      -0.00145465      -0.00094466
Ti       6.05754452       1.76189762       8.71198004        0      -0.00280656      -0.00210600       0.00071570
Ti       7.57151611       0.88770151      11.29334933        0       0.00265031       0.00320470       0.00279550
O        6.05659356       1.76337288      12.23008024        3      -0.00115000       0.00057042       0.09899541
O        7.57390699       0.88778826       7.77376189        1       0.00215461       0.00251012       0.00374796
C        4.54211026       2.63639539      10.00167935        2       0.00093619       0.00025354       0.00124175
Ti       4.54239394       4.38602406       8.71175314        0      -0.00026635      -0.00006170       0.00136641
Ti       6.05722882       3.51101693      11.29119332        0      -0.00015778       0.00179738      -0.00031259
O        4.54303968       4.38600392      12.23008024        3      -0.00141633       0.00177176       0.10028099
O        6.05789550       3.51169431       7.77272065        1       0.00203863      -0.00103443       0.00140293
C        3.02744054       5.26057819      10.00244837        2      -0.00014512       0.00176542      -0.00017758
Ti       3.02712969       7.01030291       8.71193839        0       0.00177098       0.00030674       0.00187552
Ti       4.54267125       6.13551279      11.29337791        0      -0.00179962       0.00068421      -0.00272689
O        3.02748588       7.01000569      12.23008024        3      -0.00010961      -0.00013784       0.11251883
O        4.54224437       6.13567692       7.77282061        1       0.00130725      -0.00068811      -0.00320982
C        1.51239795       7.88502233      10.00201817        2       0.00020480       0.00124272       0.00185719
Ti       1.51274155       9.63431801       8.71225687        0      -0.00273354      -0.00017229       0.00238824
Ti       3.02674343       8.76034282      11.29306915        0       0.00058855       0.00196481       0.00099116
O        1.51087393       9.63298305      12.23008024        3       0.00102888      -0.00042317       0.11197033
O        3.02793450       8.76015414       7.77347411        1       0.00033874       0.00214977       0.00151486
C        9.08738451       0.01328678      10.00624046        2       0.00092910       0.00013973      -0.00014387
Ti       9.08780941       1.76193177       8.71599829        0      -0.00148140      -0.00092272       0.00355222
Ti      10.60099234       0.89030886      11.30577323        0      -0.00010557       0.00284246       0.00198546
O        9.08326525       1.76606432      12.23008024        3      -0.00354402      -0.00749060       0.11143921
O       10.60274722       0.88770179       7.77703069        1      -0.00299324       0.00389565      -0.00177666
C        7.57218746       2.63659012      10.00436331        2       0.00011599       0.00143234       0.00332226
Ti       7.57249594       4.38620184       8.71312598        0       0.00034102       0.00018034       0.00095195
Ti       9.08925229       3.51204902      11.29777947        0      -0.00069406       0.00294181       0.00017807
O        7.57034288       4.38594345      12.23008024        3      -0.00015957       0.00189172       0.12209733
O        9.08812610       3.51083768       7.77535580        1       0.00108831       0.00056768       0.00456331
C        6.05761771       5.26092671      10.00251111        2      -0.00095074       0.00055642      -0.00046383
Ti       6.05737113       7.01024305       8.71202644        0       0.00061197       0.00126690       0.00045792
Ti       7.57279312       6.13624231      11.29108890        0      -0.00271070       0.00091882       0.00107076
O        6.05703082       7.00985077      12.23008024        3      -0.00162354      -0.00049920       0.10639482
O        7.57206412       6.13514161       7.77243847        1       0.00348628      -0.00080212       0.00156800
C        4.54245923       7.88513583      10.00308263        2      -0.00054827       0.00019093      -0.00144091
Ti       4.54279613       9.63465553       8.71487297        0       0.00001212       0.00150881       0.00060312
Ti       6.05729280       8.76011139      11.29217811        0      -0.00049873       0.00126657       0.00043939
O        4.54267809       9.63232229      12.23008024        3       0.00117273      -0.00343279       0.11626751
O        6.05690817       8.76007021       7.77283649        1      -0.00052851       0.00018480       0.00169218
C        0.07156247       0.03774746      17.27783325       10      -0.00103512      -0.00294631      -0.03526214
C        1.28062072       0.73988385      17.28622148       10       0.00049622      -0.00527677      -0.00747696
C       -1.12438159       2.12746801      17.25346258       10       0.00249149       0.00020689       0.51111648
C        0.06791399       2.83723252      17.26110132       10       0.00344736       0.00131393       0.01464327
C       -2.36024708       4.26375537      17.25345703       10       0.00310322       0.00271422       0.22379676
C       -1.14869779       4.94219589      17.26109876       10       0.00332863       0.00139950       0.03285029
C       -3.57082104       6.34565781      17.27783270       10      -0.00562995       0.00473214       0.00206896
C       -2.35834501       7.04210395      17.28622128       10      -0.00457389      -0.00102494       0.00377827
C       -4.78186533       8.43887674      17.27594031       10       0.00121470       0.00398952      -0.01758386
C       -3.57030379       9.13864780      17.28722997       10       0.00500917      -0.00213900      -0.02569039
C        2.49111561       0.04101911      17.28825499       10      -0.00069198      -0.00234071      -0.02917411
C        3.70154444       0.74146663      17.28722988       10       0.00127364      -0.00206745      -0.03428751
C        1.28365697       2.13799728      17.27783346       10       0.00258907      -0.00586658      -0.04047864
C        2.49090051       2.84062519      17.26877333       10      -0.00016661      -0.00167531      -0.03825039
C        0.06433844       4.23967068      17.23497344       10       0.00523475       0.00089181       0.13570438
C        1.27517148       4.93891961      17.24664339       10       0.00169005       0.00097468      -0.07750573
C       -1.14622436       6.34469503      17.27783270       10      -0.00122697       0.00239641      -0.00976548
C        0.06584058       7.04006519      17.26877343       10      -0.00104583       0.00151349      -0.06219407
C       -2.35850069       8.44039814      17.28825520       10       0.00059489      -0.00191646      -0.03928113
C       -1.14656689       9.13829388      17.28722997       10      -0.00020120       0.00054341      -0.03666832
C        4.91188905       0.04072217      17.28825499       10      -0.00079034      -0.00098764      -0.03382226
C        6.12272664       0.73980239      17.28622148       10      -0.00281024      -0.00085290       0.00397679
C        3.70144336       2.14069718      17.27594018       10      -0.00237284      -0.00173266      -0.01455663
C        4.91204119       2.84086202      17.26877333       10      -0.00434863      -0.00570859      -0.03813348
C        2.48870874       4.23990511      17.25488983       10       0.00454941       0.00002942      -0.04741105
C        3.70049342       4.94012197      17.25210197       10       0.00159181      -0.00239852      -0.01563166
C        1.27717163       6.33956170      17.25488973       10       0.00273754       0.00132769      -0.04519000
C        2.48904277       7.03948751      17.25210186       10      -0.00024864      -0.00220171      -0.01459447
C        0.06509033       8.43864909      17.27594031       10      -0.00018557       0.00005859      -0.01382564
C        1.27669957       9.13740080      17.26877318       10      -0.00477999       0.00003755      -0.04371493
C        7.33266530       0.03838082      17.27783325       10       0.00295211      -0.00013334      -0.01228817
C        8.54642328       0.74152326      17.26110113       10      -0.00171486      -0.00245316       0.02931760
C        6.11942749       2.13816759      17.27783346       10      -0.00081591       0.00192991       0.00301373
C        7.33446551       2.83803607      17.26110132       10      -0.00442468       0.00064054      -0.00120684
C        4.91264948       4.24035226      17.25488983       10       0.00274265      -0.00260674      -0.04503384
C        6.12627646       4.93957745      17.24664339       10       0.00168222      -0.00396661      -0.05959860
C        3.70100838       6.33980269      17.24902397       10       0.00494001      -0.00071617      -0.05269339
C        4.91331280       7.03991713      17.25210186       10       0.00105250      -0.00270550      -0.01818949
C        2.48924558       8.43888858      17.25488956       10       0.00033451      -0.00104527      -0.05132257
C        3.70155467       9.14083560      17.24664298       10      -0.00212946      -0.00359023      -0.06840976
C        9.76175795       0.04273798      17.23497339       10       0.00245913      -0.00184005       0.12671635
C       10.97788650       0.74057495      17.26110113       10       0.00153029       0.00163144       0.01670707
C        8.52785036       2.12934768      17.25346258       10      -0.00201580      -0.00134666       0.25301675
C        9.75938774       2.84048686      17.00910332       10      -0.00146238       0.00175654      -2.07604756
C        7.33688854       4.24025056      17.23497344       10       0.00418583       0.00182750       0.12539921
C        8.54989639       4.94332902      17.26109876       10       0.00302028       0.00488490       0.00554912
C        6.12564693       6.34027230      17.25488973       10      -0.00192463      -0.00277643      -0.04168783
C        7.33737787       7.04046067      17.26877343       10      -0.00488594       0.00232337      -0.03411889
C        4.91390079       8.43933369      17.25488956       10       0.00043779      -0.00180220      -0.05236648
C        6.12681955       9.13722243      17.26877318       10       0.00091368      -0.00296491      -0.03803010
O        9.84907234       2.80534163      15.42732781       11      -0.00717765      -0.00331970      -0.00242783
H        9.02124354       3.13769008      15.03453569       12       0.00818908      -0.00096153       0.00150220
