132
Lattice="12.12 0.0 0.0 -6.06 10.496227893867395 0.0 0.0 0.0 40.0" Properties=species:S:1:pos:R:3:tags:I:1:forces:R:3 energy=-1209.9384955173557 stress="0.0028069546813267437 -1.0777651503391926e-05 1.1278052530224597e-05 -1.0777651503391926e-05 0.0027818466310257483 -2.3893658685611278e-06 1.1278052530224597e-05 -2.3893658685611278e-06 0.002769400553781619" pbc="T T F"
C       -0.00211334      -0.06347312      10.00277391        2       0.00249174       0.00285244      -0.00729374
Ti       0.00008990       1.69071139       8.71914240        0       0.00016783       0.00042653      -0.00167722
Ti       1.51007037       0.81705273      11.30761534        0       0.00179395       0.00189024       0.00244516
O       -0.00309640       1.68390919      12.23008024        3       0.00124669       0.00027020      -0.21832622
O        1.50910632       0.81641645       7.77849231        1       0.00304578      -0.00269845      -0.00190415
C       -1.52018197       2.56923189      10.02426690        2       0.00199220      -0.00158262      -0.00258544
Ti      -1.51363756       4.31342208       8.72291821        0      -0.00178318      -0.00073272       0.00344254
Ti      -0.00614008       3.44588868      11.32146970        0       0.00365538      -0.00252356       0.00178847
O       -1.46106726       4.38595488      12.23008024        3       0.00406992      -0.00282653      -0.95390120
O       -0.00591771       3.43636092       7.78186885        1       0.00053442       0.00040065      -0.00142789
C       -3.02986454       5.18035299      10.01933015        2       0.00187260      -0.00087920      -0.00399990
Ti      -3.03124862       6.93892416       8.71669961        0      -0.00154717      -0.00018384      -0.00134166
Ti      -1.51004968       6.07367671      11.30549515        0       0.00033981      -0.00188199       0.00143338
O       -3.03345857       6.94700047      12.23008024        3       0.00076343       0.00129219      -0.16993647
O       -1.52060940       6.05899364       7.77963714        1       0.00134362      -0.00049197       0.00037126
C       -4.54695455       7.81208108      10.00217758        2       0.00323962      -0.00070975       0.00016964
Ti      -4.54746412       9.56074257       8.71445109        0       0.00118892      -0.00084013      -0.00011805
Ti      -3.03364921       8.69029464      11.29944664        0      -0.00039311       0.00647160       0.00137648
O       -4.54890567       9.56140061      12.23008024        3       0.00384407      -0.00015361      -0.20329872
O       -3.03505213       8.68372459       7.77337373        1       0.00491282      -0.00548239       0.00309555
C        3.02685525      -0.06055822      10.00033074        2       0.00134876       0.00225539       0.00172383
Ti       3.02739030       1.68815910       8.71476277        0       0.00354337       0.00407813       0.00194466
Ti       4.53900270       0.81426424      11.30025023        0      -0.00196500       0.00028503       0.00006427
O        3.02767852       1.68749205      12.23008024        3       0.00041817       0.00057779      -0.19260902
O        4.54361052       0.81775567       7.77382954        1      -0.00178322       0.00102089      -0.00003170
C        1.51362995       2.56354668      10.00731536        2       0.00283707       0.00123974      -0.00464901
Ti       1.51312033       4.31366011       8.71633278        0      -0.00018167       0.00003015       0.00326192
Ti       3.02831961       3.43790968      11.29976309        0      -0.00183950       0.00149391       0.00146385
O        1.52193831       4.31855154      12.23008024        3      -0.00004896       0.00204556      -0.18943750
O        3.02734252       3.43864448       7.77634234        1       0.00256622      -0.00163188       0.00112661
C        0.00415985       5.19287354      10.00009609        2       0.00459888       0.00040068      -0.00618711
Ti      -0.00156320       6.93777727       8.71054217        0       0.00655313      -0.00294273       0.00036545
Ti       1.51628007       6.06570035      11.29724964        0       0.00415808       0.00150027       0.00139439
O        0.00746599       6.94802391      12.23008024        3       0.00518218       0.00186063      -0.17543375
O        1.51381481       6.06085209       7.77278300        1       0.00006262      -0.00004420       0.00299228
C       -1.51727711       7.81939337       9.99652060        2       0.00080545      -0.00055739      -0.00056483
Ti      -1.51751913       9.56045699       8.70901464        0      -0.00097984       0.00047886       0.00082787
Ti      -0.00276323       8.68733909      11.30069037        0      -0.00223969      -0.00078541       0.00300785
O       -1.51773552       9.56131263      12.23008024        3       0.00211287      -0.00026272      -0.22543363
O       -0.00276472       8.68576743       7.77007673        1       0.00125434       0.00160157       0.00110818
C        6.05332270      -0.06357348       9.99592044        2       0.00019661       0.00285082       0.00037473
Ti       6.05643400       1.68861007       8.71209004        0       0.00146865       0.00152816      -0.00181253
Ti       7.55299878       0.79790696      11.27725374        0       0.00583345      -0.00183941       0.00489211
O        6.05426144       1.68459069      12.23008024        3       0.00263934      -0.00258682      -0.19984417
O        7.57539437       0.82037705       7.77677943        1       0.00066774      -0.00148221      -0.00112401
C        4.54316235       2.56231017      10.00270034        2      -0.00168138      -0.00070977      -0.00288022
Ti       4.54257772       4.31197726       8.71391006        0       0.00469825      -0.00236365       0.00065311
Ti       6.06204973       3.43641446      11.30534925        0       0.00403674       0.00670459       0.00428456
O        4.54289076       4.31222166      12.23008024        3       0.00124591       0.00178464      -0.18575259
O        6.06266330       3.43794712       7.77805734        1       0.00360388       0.00110109       0.00289203
C        3.02956556       5.18690530      10.00200674        2      -0.00093355       0.00205731       0.00151209
Ti       3.02890342       6.93545166       8.71028945        0       0.00155382       0.00249722       0.00024336
Ti       4.54234691       6.05960808      11.29698101        0      -0.00070562       0.00395071       0.00304125
O        3.02933394       6.93690584      12.23008024        3      -0.00025924      -0.00183201      -0.20748038
O        4.54477955       6.06036778       7.77435627        1       0.00172049      -0.00057853      -0.00023600
C        1.51395188       7.81180526       9.99806820        2       0.00066068      -0.00607984       0.00022767
Ti       1.51480583       9.56075200       8.70669654        0       0.00074973      -0.00664849      -0.00205823
Ti       3.02659006       8.68340304      11.30246543        0       0.00581622      -0.00116662       0.00267580
O        1.51003096       9.55080862      12.23008024        3       0.00308216       0.00126900      -0.22687142
O        3.02896125       8.68497087       7.76980230        1       0.00108893      -0.00315426      -0.00193214
C        9.08811836      -0.06785759       9.99210556        2      -0.00174712       0.00002505      -0.00210203
Ti       9.08798464       1.69089355       8.72462064        0       0.00219076       0.00322500      -0.00405139
Ti      10.61251073       0.79637171      11.26939788        0       0.00394917       0.00046968       0.00392444
O        9.06073252       1.59121612      12.23008024        3       0.00577647      -0.00310165      -0.46777459
O       10.60326147       0.82075212       7.77839782        1       0.00713694      -0.00220713      -0.00094410
C        7.58257402       2.56846305      10.01512427        2       0.00137278      -0.00513247       0.00055381
Ti       7.57293086       4.31122647       8.71709683        0       0.00435910       0.00062247      -0.00073944
Ti       9.09183755       3.46750663      11.28433311        0      -0.00211878       0.00289750       0.00302040
O        7.56566531       4.31691549      12.23008024        3       0.00284293       0.00166020      -0.16877033
O        9.09080325       3.43924225       7.77977133        1       0.00149326      -0.00101712      -0.00204970
C        6.05856165       5.18701760      10.00447296        2       0.00063768       0.00353773      -0.00169046
Ti       6.05910491       6.93641509       8.71363846        0       0.00042394      -0.00156284       0.00140715
Ti       7.57162357       6.06257741      11.30770792        0       0.00354680      -0.00800488       0.00233690
O        6.05675619       6.93628512      12.23008024        3       0.00132232       0.00180738      -0.17570923
O        7.57679230       6.05899310       7.77996286        1       0.00237124      -0.00034462       0.00156687
C        4.54358508       7.80975946      10.00078117        2       0.00241470      -0.00472152      -0.00177996
Ti       4.54105574       9.56046659       8.70588310        0       0.00247738      -0.00674247      -0.00353165
Ti       6.05555507       8.68352747      11.30215420        0       0.00382413       0.00233168       0.00403616
O        4.54163546       9.55173284      12.23008024        3      -0.00085891       0.00119988      -0.24136345
O        6.05823270       8.68466042       7.77379033        1       0.00415770       0.00387035       0.00071667
C        0.06346251       0.17014263      15.71467536       10      -0.00195408       0.00449859       0.07960972
C        1.27221138       0.87289526      15.72306359       10      -0.00186620       0.00249354       0.09409528
C       -1.13140304       2.25792759      15.69030469       10       0.00029701       0.00372437       0.64978304
C        0.05856111       2.97056017      15.69794343       10      -0.00245594       0.00320449       0.11175350
C       -2.36907249       4.40366195      15.69029914       10      -0.00155656      -0.00558686       0.73796393
C       -1.15747386       5.07684333      15.69794087       10      -0.00795523       0.00011925       0.06803023
C       -3.58000650       6.48122273      15.71467481       10      -0.00372714      -0.00077089       0.03912216
C       -2.36727978       7.17636198      15.72306339       10      -0.00328946      -0.00103129       0.06704538
C       -4.79027486       8.57219846      15.71278242       10      -0.00673072       0.00383656       0.06263846
C       -3.57875826       9.27196459      15.72407208       10      -0.00191373      -0.00206070       0.05469228
C        2.48308604       0.17401466      15.72509710       10      -0.00492808      -0.00013156       0.06560004
C        3.69265882       0.87509006      15.72407199       10       0.00014527       0.00104735       0.05499882
C        1.27526935       2.27110499      15.71467557       10      -0.00393062       0.00337259       0.06344335
C        2.48169191       2.97428310      15.70561544       10       0.00093686       0.00159666       0.06100911
C        0.05614826       4.37339581      15.67181555       10      -0.00517446       0.00177674       0.21996551
C        1.26673176       5.07210361      15.68348550       10      -0.00519321       0.00049964      -0.00403825
C       -1.15490321       6.48043316      15.71467481       10      -0.00196069      -0.00237016       0.05294890
C        0.05715998       7.17334321      15.70561554       10      -0.00563993       0.00044626       0.05309591
C       -2.36708587       8.57389222      15.72509731       10      -0.00152024      -0.00010053       0.07275170
C       -1.15555498       9.27177523      15.72407208       10      -0.00057036      -0.00131947       0.04915456
C        4.90259994       0.17390876      15.72509710       10      -0.00106963      -0.00172992       0.06774445
C        6.11291994       0.87318349      15.72306359       10      -0.00461638       0.00320586       0.06569508
C        3.69248332       2.27438536      15.71278229       10      -0.00614759      -0.00140416       0.05789113
C        4.90290546       2.97447291      15.70561544       10      -0.00676124       0.00000657       0.05844371
C        2.48046162       4.37358343      15.69173194       10      -0.00469476       0.00311981       0.04511783
C        3.69261404       5.07327657      15.68894408       10      -0.00110346      -0.00409021       0.07412099
C        1.26793977       6.47260484      15.69173184       10      -0.00263076      -0.00082793       0.05579287
C        2.48030001       7.17236385      15.68894397       10      -0.00462985      -0.00505333       0.06205391
C        0.05586049       8.57165202      15.71278242       10       0.00315487       0.00203788       0.09326612
C        1.26749389       9.27010223      15.70561529       10      -0.00105472       0.00027457       0.04335932
C        7.32160517       0.17027929      15.71467536       10       0.00005559       0.00086011       0.07987223
C        8.53567361       0.87325515      15.69794324       10      -0.00203228       0.00220033       0.10259658
C        6.10916018       2.27133529      15.71467557       10      -0.00402397       0.00064496       0.04806989
C        7.32548356       2.97115528      15.69794343       10      -0.00750344       0.00106105       0.12335353
C        4.90468984       4.37375266      15.69173194       10      -0.00033906       0.00347242       0.04937921
C        6.11828803       5.07286719      15.68348550       10       0.00034251      -0.00298644       0.03205362
C        3.69265748       6.47298598      15.68586608       10      -0.00195798      -0.00136987       0.04299956
C        4.90512330       7.17293518      15.68894397       10      -0.00209602      -0.00490007       0.07308402
C        2.48009198       8.57196514      15.69173167       10      -0.00202191      -0.00367492       0.05443199
C        3.69266359       9.27355654      15.68348509       10      -0.00471512      -0.00105755       0.01132377
C        9.75192340       0.17508866      15.67181550       10      -0.00086485       0.00017305       0.19887556
C       10.96862821       0.87271524      15.69794324       10      -0.00410441       0.00295495       0.12321681
C        8.51282794       2.25840005      15.69030469       10      -0.00311456       0.00033610       0.68954462
C        9.74814538       2.97024832      15.44594543       10      -0.00119081      -0.00276288      -1.26703186
C        7.32845531       4.37408615      15.67181555       10       0.00151072       0.00146865       0.22662655
C        8.54161098       5.07796528      15.69794087       10       0.00014692      -0.00200239       0.11955867
C        6.11710887       6.47333384      15.69173184       10      -0.00271537      -0.00015210       0.03796914
C        7.32813909       7.17434478      15.70561554       10      -0.00028597      -0.00038943       0.05437323
C        4.90522786       8.57245459      15.69173167       10      -0.00599614      -0.00338433       0.03943957
C        6.11808237       9.27051977      15.70561529       10      -0.00848273       0.00049687       0.06979660
O        9.78796377       2.99485205      13.98835237       11      -0.00003703       0.00791318      -0.00482884
H        9.45051585       2.16519810      13.51670138       12      -0.00227093       0.00293907       0.00703906
