130
Lattice="12.12 0.0 0.0 -6.06 10.496227893867395 0.0 0.0 0.0 40.0" Properties=species:S:1:pos:R:3:tags:I:1:forces:R:3 energy=-1200.7496028021621 stress="0.0028581644591725176 1.1397231747469268e-07 6.218562329689875e-08 1.1397231747469268e-07 0.002857958721112926 3.815335169287479e-07 6.218562329689875e-08 3.815335169287479e-07 0.002087276209411283" pbc="T T F"
C       -0.00001939      -0.00003361      10.00158569        2       0.00002056      -0.00000591       0.00157652
Ti      -0.00000236       1.74934638       8.71086588        0       0.00000846       0.00001183       0.00193870
Ti       1.51508707       0.87469779      11.29127676        0       0.00006489       0.00005798       0.00115327
O        0.00001710       1.74906742      12.23008024        3      -0.00004617       0.00006217       0.11139749
O        1.51500367       0.87469766       7.77117637        1      -0.00002217       0.00002180       0.00216927
C       -1.51500277       2.62411674      10.00170824        2      -0.00000097       0.00003393       0.00137415
Ti      -1.51499049       4.37341799       8.71070398        0       0.00002387      -0.00000882       0.00167651
Ti       0.00002688       3.49884036      11.29126985        0       0.00005731       0.00004822       0.00108688
O       -1.51505130       4.37383204      12.23008024        3       0.00006208       0.00006403       0.10992282
O        0.00000306       3.49869273       7.77112153        1       0.00002767      -0.00009609       0.00203726
C       -3.03000434       5.24812686      10.00157024        2       0.00006784       0.00006344       0.00123362
Ti      -3.03000183       6.99750473       8.71067462        0       0.00001085       0.00003096       0.00163610
Ti      -1.51489364       6.12289017      11.29108584        0       0.00009212       0.00005985       0.00092740
O       -3.02963511       6.99743643      12.23008024        3      -0.00001938       0.00003668       0.10842707
O       -1.51501142       6.12278077       7.77106112        1      -0.00003936      -0.00001412       0.00180879
C       -4.54494518       7.87215318      10.00167823        2       0.00001923       0.00003456       0.00136920
Ti      -4.54502770       9.62155438       8.71083376        0      -0.00000547       0.00002492       0.00189211
Ti      -3.02986482       8.74687876      11.29122667        0       0.00010915       0.00004071       0.00103184
O       -4.54516910       9.62160014      12.23008024        3       0.00005264      -0.00003329       0.10560174
O       -3.03004175       8.74689545       7.77109734        1      -0.00005011       0.00007930       0.00196664
C        3.03009355      -0.00000561      10.00170386        2       0.00001488       0.00002741       0.00139865
Ti       3.03000990       1.74938405       8.71077682        0      -0.00001058       0.00003609       0.00182072
Ti       4.54507920       0.87462494      11.29124713        0       0.00011398       0.00015738       0.00107212
O        3.02999297       1.74936414      12.23008024        3       0.00009954       0.00007946       0.08782882
O        4.54496498       0.87469533       7.77109300        1      -0.00002675       0.00008467       0.00196849
C        1.51501915       2.62413427      10.00171820        2       0.00002931       0.00000231       0.00139699
Ti       1.51498990       4.37340921       8.71071153        0       0.00001097      -0.00000515       0.00166148
Ti       3.02995994       3.49883432      11.29126366        0       0.00006117       0.00011730       0.00107788
O        1.51511266       4.37394700      12.23008024        3      -0.00003648       0.00000906       0.10626978
O        3.02997889       3.49872015       7.77110526        1      -0.00000282      -0.00002355       0.00198476
C       -0.00000846       5.24808764      10.00153275        2      -0.00000224       0.00006054       0.00117628
Ti      -0.00000107       6.99748701       8.71059884        0       0.00000977       0.00002522       0.00140671
Ti       1.51489488       6.12288866      11.29106289        0      -0.00004199       0.00004807       0.00091146
O        0.00001509       6.99760081      12.23008024        3       0.00000174       0.00004745       0.11140320
O        1.51501095       6.12277115       7.77106538        1       0.00003877      -0.00004388       0.00180035
C       -1.51502949       7.87218711      10.00147146        2       0.00004448       0.00004838       0.00124389
Ti      -1.51502177       9.62154867       8.71067626        0       0.00000726       0.00007035       0.00163893
Ti       0.00000702       8.74676963      11.29102061        0       0.00004090       0.00002956       0.00090446
O       -1.51437710       9.62134327      12.23008024        3      -0.00001430       0.00010623       0.10608495
O       -0.00000771       8.74688446       7.77105616        1      -0.00002185       0.00007838       0.00177436
C        6.06000376       0.00007622      10.00158108        2       0.00002280       0.00002872       0.00121396
Ti       6.06000316       1.74937540       8.71067169        0       0.00000694       0.00006618       0.00164228
Ti       7.57493708       0.87457092      11.29122484        0      -0.00005674       0.00015268       0.00106401
O        6.06010066       1.75008222      12.23008024        3       0.00001753       0.00009174       0.10328199
O        7.57503076       0.87468905       7.77108234        1       0.00002809       0.00010618       0.00192347
C        4.54499106       2.62407069      10.00159816        2       0.00005004       0.00011511       0.00126548
Ti       4.54500033       4.37344015       8.71068079        0      -0.00000515       0.00002381       0.00159755
Ti       6.06003638       3.49882090      11.29116951        0       0.00000126       0.00019125       0.00102590
O        4.54547041       4.37343708      12.23008024        3      -0.00008263       0.00019157       0.10322116
O        6.05999132       3.49874170       7.77107467        1       0.00002136       0.00004908       0.00188485
C        3.03002205       5.24811443      10.00159799        2      -0.00004462       0.00007416       0.00116094
Ti       3.02999853       6.99750393       8.71066226        0      -0.00000586       0.00001662       0.00157228
Ti       4.54482472       6.12288633      11.29122814        0      -0.00007997       0.00005957       0.00102460
O        3.02943397       6.99748188      12.23008024        3      -0.00010458       0.00007425       0.10679516
O        4.54500440       6.12282743       7.77107916        1       0.00004277       0.00005150       0.00189909
C        1.51502325       7.87219008      10.00143070        2      -0.00004948       0.00004792       0.00117327
Ti       1.51501473       9.62154102       8.71065629        0       0.00001122       0.00006373       0.00159688
Ti       3.02989165       8.74685439      11.29118578        0      -0.00012500       0.00002243       0.00101479
O        1.51448247       9.62119546      12.23008024        3      -0.00000197       0.00012565       0.10733266
O        3.03003979       8.74688890       7.77108873        1       0.00008368       0.00006303       0.00192551
C        9.08991995      -0.00000738      10.00169436        2      -0.00002052       0.00003464       0.00133084
Ti       9.08998898       1.74938810       8.71074816        0       0.00001776       0.00002285       0.00181920
Ti      10.60486783       0.87469884      11.29128977        0       0.00000686       0.00004396       0.00112192
O        9.08982695       1.74945888      12.23008024        3       0.00004903       0.00005422       0.09104220
O       10.60500805       0.87469391       7.77116077        1       0.00005911       0.00001815       0.00213734
C        7.57503333       2.62405836      10.00155021        2      -0.00000033       0.00011441       0.00130938
Ti       7.57500318       4.37344080       8.71066735        0       0.00001652       0.00002058       0.00161917
Ti       9.09009165       3.49882364      11.29124907        0       0.00000631       0.00009817       0.00105894
O        7.57478996       4.37346281      12.23008024        3       0.00010969       0.00013101       0.10312754
O        9.09002747       3.49872251       7.77108945        1      -0.00000405      -0.00000548       0.00195353
C        6.05999922       5.24818827      10.00151505        2       0.00000946       0.00005044       0.00123307
Ti       6.06000115       6.99746901       8.71073169        0      -0.00000314       0.00001527       0.00174244
Ti       7.57514581       6.12290336      11.29123617        0       0.00003171       0.00001559       0.00101188
O        6.05996652       6.99711903      12.23008024        3      -0.00000152       0.00003201       0.09402239
O        7.57499381       6.12283457       7.77107508        1      -0.00001860       0.00005212       0.00190433
C        4.54494129       7.87213871      10.00167744        2      -0.00002594       0.00005356       0.00134327
Ti       4.54503272       9.62155861       8.71080850        0      -0.00000309       0.00002672       0.00187983
Ti       6.05997991       8.74670882      11.29128518        0      -0.00002334       0.00001021       0.00110291
O        4.54515369       9.62158196      12.23008024        3      -0.00010964      -0.00001071       0.09906697
O        6.06000402       8.74687761       7.77114427        1       0.00000648       0.00008344       0.00209332
C        0.04505375       0.06753933      17.30376445       10       0.00003387       0.00014829      -0.03153418
C        1.25707992       0.76730638      17.30376445       10      -0.00370178      -0.00149032      -0.03107899
C       -1.16703910       2.16677290      17.30376445       10       0.00038765       0.00196463      -0.03138474
C        0.04494971       2.86657347      17.30376445       10       0.00016823      -0.00133722      -0.02667698
C       -2.37900586       4.26609170      17.30376445       10      -0.00108250       0.00047077      -0.03692752
C       -1.16699420       4.96584731      17.30376445       10       0.00074256      -0.00059427      -0.03882599
C       -3.59091393       6.36515696      17.30376445       10      -0.00143184       0.00164288      -0.03736066
C       -2.37892848       7.06493616      17.30376445       10       0.00050294      -0.00202783      -0.03882866
C       -4.80306491       8.46448509      17.30376445       10       0.00145069       0.00069590      -0.03344666
C       -3.59101099       9.16422957      17.30376445       10      -0.00059573      -0.00045372      -0.02765349
C        2.46902223       0.06753961      17.30376445       10       0.00118461      -0.00011104      -0.03671947
C        3.68108095       0.76724962      17.30376445       10      -0.00275354      -0.00043082      -0.03552273
C        1.25694869       2.16677437      17.30376445       10       0.00232543       0.00146979      -0.03313471
C        2.46896384       2.86656053      17.30376445       10      -0.00205413       0.00007777      -0.03652439
C        0.04497382       4.26606370      17.30376445       10      -0.00096581       0.00005676      -0.03990821
C        1.25694440       4.96578612      17.30376445       10      -0.00124813       0.00160702      -0.03855334
C       -1.16690580       6.36528542      17.30376445       10      -0.00085883       0.00109639      -0.02952737
C        0.04507568       7.06507652      17.30376445       10       0.00077553       0.00006479      -0.04445616
C       -2.37902948       8.46440396      17.30376445       10       0.00102601       0.00078101      -0.04152552
C       -1.16704941       9.16413594      17.30376445       10       0.00057728       0.00164871      -0.03885260
C        4.89306101       0.06746192      17.30376445       10      -0.00040658      -0.00130357      -0.03705138
C        6.10500886       0.76726667      17.30376445       10       0.00061557      -0.00045987      -0.02980625
C        3.68095669       2.16678635      17.30376445       10       0.00168987      -0.00000820      -0.02945238
C        4.89299299       2.86652965      17.30376445       10       0.00110871       0.00061884      -0.03535987
C        2.46895090       4.26608593      17.30376445       10       0.00094026      -0.00248587      -0.03607623
C        3.68099034       4.96571851      17.30376445       10      -0.00097784       0.00232563      -0.02985704
C        1.25702046       6.36527430      17.30376445       10      -0.00110096      -0.00080741      -0.03061557
C        2.46899081       7.06495165      17.30376445       10      -0.00170892      -0.00012280      -0.03917449
C        0.04497886       8.46450551      17.30376445       10      -0.00064535       0.00026310      -0.03135092
C        1.25692444       9.16423020      17.30376445       10       0.00036008       0.00113668      -0.04028759
C        7.31700338       0.06754961      17.30376445       10      -0.00061719      -0.00182284      -0.03663910
C        8.52903321       0.76731250      17.30376445       10      -0.00102947      -0.00095470      -0.03428853
C        6.10499547       2.16678210      17.30376445       10      -0.00077187      -0.00027382      -0.03658209
C        7.31695069       2.86652563      17.30376445       10       0.00085769      -0.00125202      -0.03258787
C        4.89300435       4.26602894      17.30376445       10       0.00121603      -0.00179244      -0.04004520
C        6.10496179       4.96575084      17.30376445       10       0.00093911      -0.00019559      -0.03220684
C        3.68097647       6.36520547      17.30376445       10       0.00200029      -0.00023257      -0.03630357
C        4.89303281       7.06496485      17.30376445       10      -0.00234763      -0.00159495      -0.03556106
C        2.46886573       8.46444959      17.30376445       10       0.00269321       0.00030045      -0.04268624
C        3.68092520       9.16422894      17.30376445       10      -0.00118867      -0.00004509      -0.02770122
C        9.74104824       0.06755264      17.30376445       10       0.00056276       0.00030210      -0.03867267
C       10.95306181       0.76729415      17.30376445       10      -0.00146663      -0.00084886      -0.03171520
C        8.52902106       2.16681623      17.30376445       10      -0.00052371       0.00185629      -0.03135736
C        9.74097662       2.86661509      17.30376445       10       0.00142713      -0.00179742      -0.03629067
C        7.31689402       4.26596704      17.30376445       10      -0.00074628       0.00043509      -0.04317378
C        8.52893565       4.96571746      17.30376445       10       0.00108722      -0.00061952      -0.02852292
C        6.10507096       6.36524192      17.30376445       10      -0.00021561       0.00118245      -0.03090061
C        7.31708578       7.06497939      17.30376445       10      -0.00042835      -0.00210258      -0.03666973
C        4.89294187       8.46447327      17.30376445       10       0.00366303       0.00134965      -0.03722138
C        6.10495266       9.16426789      17.30376445       10      -0.00004964      -0.00027339      -0.03398781
