130
Lattice="12.12 0.0 0.0 -6.06 10.496227893867395 0.0 0.0 0.0 40.0" Properties=species:S:1:pos:R:3:tags:I:1:forces:R:3 energy=-1198.861899322434 stress="0.0027404723429958135 1.7916896222425915e-07 -2.1294375866270307e-07 1.7916896222425915e-07 0.0027407417046657633 -3.2369953672006263e-07 -2.1294375866270307e-07 -3.2369953672006263e-07 0.0031399896693323883" pbc="T T F"
C       -0.00004691      -0.00004190       9.97460260        2      -0.00016955      -0.00000222      -0.00689746
Ti      -0.00011395       1.74959667       8.70085426        0       0.00009735       0.00033898       0.00107452
Ti       1.51418477       0.87438075      11.28276467        0      -0.00051145      -0.00045319      -0.00270822
O       -0.00055241       1.74962262      12.23159545        3      -0.00009085      -0.00034061      -0.18007874
O        1.51443253       0.87440016       7.77516897        1      -0.00019200      -0.00016522      -0.00202123
C       -1.51484079       2.62274933       9.97536128        2      -0.00042476      -0.00047919      -0.00689356
Ti      -1.51524164       4.37352315       8.70261837        0       0.00001764       0.00018169       0.00190705
Ti      -0.00018600       3.49546495      11.28889530        0      -0.00034270      -0.00081753      -0.00223467
O       -1.51923082       4.37459361      12.23159545        3      -0.00052565      -0.00044900      -0.15190602
O        0.00008973       3.49829426       7.77688373        1      -0.00009546       0.00025872      -0.00100798
C       -3.03029710       5.24778583       9.97324494        2      -0.00030761      -0.00026470      -0.00699486
Ti      -3.03008625       6.99724387       8.70265425        0       0.00013959      -0.00029787       0.00166231
Ti      -1.51670279       6.12147179      11.29137722        0      -0.00056570      -0.00007735      -0.00240354
O       -3.03165619       6.99332278      12.23159545        3      -0.00047414      -0.00042996      -0.15258103
O       -1.51508085       6.12271643       7.77774864        1       0.00045016       0.00030881      -0.00094900
C       -4.54614308       7.87305179       9.97509764        2      -0.00049067      -0.00015084      -0.00700199
Ti      -4.54481205       9.62122543       8.70099799        0       0.00021265       0.00000987       0.00072273
Ti      -3.03296712       8.74811218      11.28963157        0      -0.00069933       0.00018849      -0.00112521
O       -4.54480515       9.62012694      12.23159545        3      -0.00031100       0.00008761      -0.17579796
O       -3.03025677       8.74719020       7.77716153        1       0.00043324      -0.00019066      -0.00144556
C        3.02865035       0.00076105       9.97585550        2      -0.00026338       0.00037665      -0.00681989
Ti       3.02991245       1.74930074       8.70165019        0       0.00003032       0.00026038       0.00136136
Ti       4.54513726       0.87904015      11.29075991        0       0.00006020       0.00026247      -0.00279653
O        3.03523975       1.75250019      12.23159545        3       0.00023004       0.00030080      -0.14140494
O        4.54417730       0.87462356       7.77680644        1      -0.00017495      -0.00081343      -0.00175991
C        1.51495307       2.62268520       9.97577106        2       0.00005284      -0.00032897      -0.00692014
Ti       1.51517061       4.37365977       8.70273282        0       0.00010471       0.00020115       0.00244701
Ti       3.03407033       3.49752895      11.29027074        0       0.00036339      -0.00051180      -0.00377898
O        1.51792489       4.37501620      12.23159545        3       0.00042121      -0.00057648      -0.15203687
O        3.02947009       3.49801160       7.77655821        1      -0.00075981       0.00008050      -0.00166537
C       -0.00013356       5.24676795       9.97397168        2       0.00001842      -0.00034038      -0.00575917
Ti      -0.00008214       6.99747710       8.70293760        0       0.00016228      -0.00024324       0.00237797
Ti       1.51647242       6.12141097      11.29095110        0       0.00017218       0.00005385      -0.00349579
O        0.00035416       6.99814671      12.23159545        3       0.00020335      -0.00014627      -0.16364693
O        1.51492219       6.12273713       7.77769395        1      -0.00047592       0.00033794      -0.00052507
C       -1.51616112       7.87252874       9.97380287        2      -0.00008388      -0.00000563      -0.00559146
Ti      -1.51468937       9.62155310       8.70308608        0       0.00020181       0.00000345       0.00210254
Ti      -0.00014777       8.74841382      11.29108072        0      -0.00003890       0.00033149      -0.00248806
O       -1.51256768       9.62273622      12.23159545        3      -0.00014149       0.00043374      -0.15249865
O       -0.00004977       8.74679479       7.77784086        1      -0.00000901      -0.00046118      -0.00075872
C        6.05978184       0.00038390       9.97316398        2       0.00002032       0.00022945      -0.00664595
Ti       6.05997767       1.74899095       8.70015639        0      -0.00031102      -0.00000601      -0.00017458
Ti       7.57458128       0.88031919      11.29190312        0       0.00032249       0.00071333      -0.00222637
O        6.06058525       1.75434503      12.23159545        3       0.00008964       0.00062947      -0.10882058
O        7.57555927       0.87476889       7.77698017        1       0.00014822      -0.00072676      -0.00187423
C        4.54414095       2.62358588       9.97383519        2       0.00042514       0.00018726      -0.00757722
Ti       4.54469116       4.37357679       8.69976822        0      -0.00022447      -0.00006410       0.00000078
Ti       6.06020552       3.49926975      11.28652704        0       0.00043028      -0.00029187      -0.00600194
O        4.54989259       4.37209870      12.23159545        3       0.00086953      -0.00031265      -0.10049415
O        6.05992934       3.49866901       7.77609344        1       0.00004206      -0.00020657      -0.00362024
C        3.03014943       5.24758615       9.97315624        2       0.00028613      -0.00021720      -0.00667747
Ti       3.03008673       6.99717294       8.70277121        0      -0.00022766      -0.00044056       0.00214142
Ti       4.54983799       6.11900546      11.29183081        0       0.00089164      -0.00010192      -0.00304037
O        3.03128903       6.99417810      12.23159545        3       0.00088504      -0.00011616      -0.15582022
O        4.54534232       6.12316260       7.77683445        1      -0.00055100       0.00055863      -0.00195422
C        1.51594404       7.87252879       9.97372057        2       0.00026326       0.00009261      -0.00554470
Ti       1.51472837       9.62172726       8.70309430        0      -0.00031841      -0.00010991       0.00197101
Ti       3.03267723       8.74806485      11.28997070        0       0.00058587       0.00053110      -0.00172513
O        1.51292092       9.62327693      12.23159545        3       0.00011092       0.00057048      -0.15530368
O        3.03012136       8.74699066       7.77725765        1      -0.00044184      -0.00003841      -0.00116085
C        9.09128480       0.00082151       9.97530671        2       0.00015933       0.00036846      -0.00678144
Ti       9.09019140       1.74925105       8.70163521        0      -0.00013732      -0.00000223       0.00059653
Ti      10.60582220       0.87433424      11.28280760        0       0.00023668      -0.00038231      -0.00220611
O        9.08457333       1.75285062      12.23159545        3      -0.00034188       0.00017626      -0.13507233
O       10.60570489       0.87436895       7.77509515        1       0.00004531      -0.00020268      -0.00214532
C        7.57551360       2.62367789       9.97350329        2      -0.00032166       0.00005113      -0.00748661
Ti       7.57525871       4.37358836       8.69935856        0      -0.00028874      -0.00000852      -0.00071774
Ti       9.08485641       3.49812328      11.29045689        0      -0.00056664      -0.00049967      -0.00273668
O        7.57047446       4.37170907      12.23159545        3      -0.00047841      -0.00033478      -0.09327353
O        9.09041020       3.49814982       7.77660894        1       0.00048575       0.00000398      -0.00229040
C        6.05989246       5.24868170       9.97319096        2      -0.00000666      -0.00055285      -0.00773789
Ti       6.05999497       6.99783757       8.70144523        0      -0.00026578      -0.00029563       0.00057816
Ti       7.57117168       6.11885780      11.29084688        0      -0.00038303      -0.00033524      -0.00266112
O        6.06018434       6.99100648      12.23159545        3       0.00005104      -0.00047617      -0.12835095
O        7.57468664       6.12329791       7.77669849        1       0.00045094       0.00045175      -0.00247612
C        4.54623991       7.87290003       9.97501769        2       0.00026649      -0.00001903      -0.00703507
Ti       4.54457905       9.62125781       8.70099980        0      -0.00034320      -0.00023768       0.00066528
Ti       6.05989860       8.74795406      11.28331774        0       0.00001757       0.00052185      -0.00232802
O        4.54367811       9.62022281      12.23159545        3       0.00030004       0.00009133      -0.17266875
O        6.06001862       8.74778113       7.77512724        1      -0.00004453       0.00025356      -0.00249095
C        0.04489584       0.06729893      15.17370071       10      -0.00753035      -0.00432632       0.04085534
C        1.25779376       0.76752315      15.17370071       10       0.00112345       0.00071072       0.06420094
C       -1.16846280       2.16823091      15.17370071       10       0.00006745      -0.00091424       0.01965768
C        0.04493347       2.86744717      15.17370071       10       0.00078988      -0.00136578       0.06802491
C       -2.38043408       4.26708369      15.17370071       10      -0.00190285       0.00185498       0.04018608
C       -1.16721375       4.96620673      15.17370071       10      -0.00084644       0.00077808       0.03394575
C       -3.59060642       6.36375957      15.17370071       10      -0.00351413       0.00162450       0.04205851
C       -2.37824700       7.06447390      15.17370071       10      -0.00327789       0.00262852       0.03308774
C       -4.80205612       8.46245453      15.17370071       10      -0.00771433       0.00075666       0.01997732
C       -3.59003983       9.16362637      15.17370071       10       0.00351365       0.00473225       0.06771120
C        2.47126313       0.06770819      15.17370071       10      -0.00347322      -0.00307666       0.02423260
C        3.68274920       0.76812932      15.17370071       10      -0.00418768      -0.00160577       0.06259771
C        1.25819599       2.16819422      15.17370071       10      -0.00088772      -0.00280851       0.02148291
C        2.47043162       2.86745818      15.17370071       10       0.00025631      -0.00086801       0.06230673
C        0.04515676       4.26799373      15.17370071       10      -0.00186017      -0.00037799       0.09738977
C        1.25770043       4.96631932      15.17370071       10      -0.00119054       0.00020345       0.03380880
C       -1.16639488       6.36536628      15.17370071       10      -0.00437463      -0.00060877       0.12647907
C        0.04545798       7.06489097      15.17370071       10      -0.00330215       0.00200754       0.03705952
C       -2.37708508       8.46345454      15.17370071       10      -0.00248680       0.00076658       0.10338852
C       -1.16597421       9.16417041      15.17370071       10      -0.00199394       0.00189272       0.03136576
C        4.89496206       0.06819225      15.17370071       10      -0.00135842      -0.00009368       0.06888235
C        6.10515335       0.76888179      15.17370071       10       0.00018692      -0.00174581       0.05482103
C        3.68373637       2.16848877      15.17370071       10       0.00196495      -0.00113753       0.01235436
C        4.89417109       2.86770306      15.17370071       10       0.00260367      -0.00051993       0.04545539
C        2.47073715       4.26731732      15.17370071       10       0.00013342       0.00055956       0.05501317
C        3.68244889       4.96555834      15.17370071       10       0.00022742      -0.00075001       0.05308012
C        1.25725783       6.36549306      15.17370071       10      -0.00243245       0.00056288       0.13148578
C        2.46881705       7.06472509      15.17370071       10      -0.00205420       0.00128121       0.03279720
C        0.04531635       8.46408770      15.17370071       10      -0.00019911       0.00218010       0.13617606
C        1.25634905       9.16418351      15.17370071       10       0.00114478       0.00060483       0.03179161
C        7.31550095       0.06830573      15.17370071       10       0.00201530      -0.00146456       0.07082303
C        8.52731809       0.76827369      15.17370071       10       0.00253532      -0.00073386       0.05603720
C        6.10505652       2.16861026      15.17370071       10       0.00356636      -0.00169605      -0.01091148
C        7.31561078       2.86780237      15.17370071       10       0.00451527       0.00079762       0.05285087
C        4.89441586       4.26608679      15.17370071       10       0.00160043      -0.00028969      -0.01435641
C        6.10520123       4.96475141      15.17370071       10       0.00210724       0.00063056       0.05882163
C        3.68113919       6.36402756      15.17370071       10      -0.00042183       0.00071558       0.05891508
C        4.89311060       7.06346137      15.17370071       10       0.00074364       0.00298194       0.05125928
C        2.46746595       8.46370907      15.17370071       10       0.00395009       0.00176141       0.10963288
C        3.68004600       9.16380193      15.17370071       10       0.00337951       0.00325229       0.06496893
C        9.73852422       0.06779463      15.17370071       10      -0.00308773      -0.00444139       0.02974955
C       10.95188899       0.76758328      15.17370071       10       0.00790033      -0.00074046       0.06238850
C        8.52602002       2.16861480      15.17370071       10       0.00317951      -0.00262895       0.00495768
C        9.73942884       2.86742577      15.17370071       10       0.00319531      -0.00142883       0.05675134
C        7.31600480       4.26602752      15.17370071       10       0.00104431      -0.00077945      -0.01823195
C        8.52781103       4.96536004      15.17370071       10       0.00156375      -0.00172201       0.05528178
C        6.10522251       6.36243449      15.17370071       10      -0.00065460       0.00162843       0.00106581
C        7.31726873       7.06351430      15.17370071       10      -0.00002403       0.00089102       0.05199073
C        4.89198263       8.46237640      15.17370071       10      -0.00061387      -0.00024616       0.02646931
C        6.10478257       9.16314892      15.17370071       10       0.00772619       0.00464441       0.06136810
