132
Lattice="12.12 0.0 0.0 -6.06 10.496227893867395 0.0 0.0 0.0 40.0" Properties=species:S:1:pos:R:3:tags:I:1:forces:R:3 energy=-1209.8435149650431 stress="0.0027905064937745 -6.9031857233341674e-06 6.502340045107149e-06 -6.9031857233341674e-06 0.002773127705622531 -4.05475096007661e-06 6.502340045107149e-06 -4.05475096007661e-06 0.0027516398004528535" pbc="T T F"
C       -0.00094750      -0.00021315       9.99251354        2       0.00024969       0.00105226       0.00184339
Ti      -0.00262981       1.75592166       8.70692843        0       0.00364315      -0.00076744      -0.00068957
Ti       1.51745653       0.87978885      11.31279661        0       0.00010868      -0.00098416       0.00032776
O        0.00177437       1.74609724      12.23159545        3       0.00038061       0.00080815      -0.05207521
O        1.50942110       0.88020196       7.77909502        1       0.00366627      -0.00182027       0.00299666
C       -1.51651044       2.62882294      10.01243591        2       0.00011863      -0.00002550      -0.00198735
Ti      -1.51321608       4.38220127       8.71340688        0       0.00204944       0.00123326      -0.00129239
Ti      -0.00825776       3.50175793      11.31824933        0       0.00101882       0.00210019      -0.00013941
O       -1.49794019       4.40508071      12.23159545        3      -0.00160686      -0.00145503      -0.34334228
O       -0.00468147       3.50345858       7.78343302        1       0.00195390      -0.00098376       0.00118685
C       -3.03133647       5.25372870      10.00381134        2      -0.00049250      -0.00047305      -0.00338663
Ti      -3.03242156       7.00066958       8.70563009        0       0.00233710       0.00296190      -0.00167583
Ti      -1.51306363       6.13716755      11.30037711        0       0.00096133      -0.00209696       0.00062020
O       -3.03234540       7.00844365      12.23159545        3       0.00017294      -0.00038530       0.00188344
O       -1.51868534       6.12574167       7.78016119        1       0.00129585       0.00041628       0.00039760
C       -4.54791878       7.87741027       9.99468993        2       0.00107389       0.00014567       0.00064772
Ti      -4.54814691       9.62603839       8.70121756        0       0.00122819      -0.00069980      -0.00211219
Ti      -3.03425567       8.75054404      11.32020475        0       0.00121060       0.00291021      -0.00159357
O       -4.55090151       9.62705621      12.23159545        3       0.00112257      -0.00116213      -0.04299338
O       -3.03412573       8.74805464       7.77735899        1       0.00043004       0.00108758       0.00251215
C        3.02775875       0.00392914       9.99479101        2       0.00086502      -0.00114118       0.00081234
Ti       3.02609035       1.75382105       8.70273119        0       0.00093111      -0.00099618      -0.00236293
Ti       4.54579988       0.88353534      11.31814338        0       0.00283022      -0.00066050      -0.00087903
O        3.02591843       1.75321457      12.23159545        3      -0.00075819      -0.00188168      -0.00176053
O        4.54292062       0.88062480       7.77687323        1       0.00056684      -0.00118327       0.00310025
C        1.51478940       2.62887386       9.99472799        2       0.00121362      -0.00159419       0.00059856
Ti       1.51316078       4.37677998       8.70410646        0       0.00168654      -0.00109004      -0.00301801
Ti       3.02775548       3.50500662      11.31987281        0       0.00104476      -0.00217800      -0.00128635
O        1.51534754       4.37655973      12.23159545        3       0.00159545      -0.00051204       0.00111628
O        3.02821262       3.50305715       7.77919545        1       0.00102364       0.00037422       0.00116354
C        0.00035696       5.25751208       9.99456336        2      -0.00035981      -0.00071389      -0.00178767
Ti      -0.00110359       7.00109211       8.70094245        0      -0.00023304       0.00147639      -0.00253015
Ti       1.51256384       6.12600039      11.32004188        0      -0.00012706      -0.00047682       0.00038943
O        0.00238611       7.00530761      12.23159545        3       0.00076189      -0.00112288      -0.03072933
O        1.51306209       6.12561036       7.77909590        1       0.00193379      -0.00034960       0.00062536
C       -1.51703057       7.88250930       9.99344390        2       0.00140103       0.00040619       0.00009709
Ti      -1.51834490       9.62531579       8.69638245        0      -0.00012406      -0.00177661      -0.00313021
Ti       0.00289583       8.75332228      11.31810687        0       0.00025271       0.00077435      -0.00082269
O       -1.51872711       9.62698102      12.23159545        3       0.00078926      -0.00026086      -0.03434188
O       -0.00425549       8.74971060       7.77410004        1       0.00270541       0.00050985       0.00273051
C        6.05085497      -0.00064852       9.99204946        2       0.00212302       0.00100843       0.00099814
Ti       6.05505119       1.75405784       8.70630388        0      -0.00102749      -0.00236936      -0.00199493
Ti       7.56686828       0.87377098      11.29015586        0      -0.00194589      -0.00360155      -0.00126226
O        6.05815280       1.74805036      12.23159545        3       0.00117231       0.00218813       0.01362716
O        7.57261674       0.87985410       7.77727503        1      -0.00018063      -0.00067579       0.00189638
C        4.54164140       2.62636544       9.99375454        2       0.00081388      -0.00081338      -0.00033483
Ti       4.54332126       4.37587259       8.70267071        0      -0.00003697      -0.00078366      -0.00274729
Ti       6.06324688       3.49713841      11.30850717        0      -0.00042600       0.00071761      -0.00102037
O        4.54382376       4.37511337      12.23159545        3       0.00034453      -0.00109736      -0.02199324
O        6.05984016       3.50233091       7.77981851        1      -0.00087262      -0.00074662       0.00089585
C        3.03039025       5.25108161       9.99471195        2       0.00104442      -0.00157141       0.00089627
Ti       3.02980631       6.99864282       8.70360649        0       0.00102293      -0.00023818      -0.00196138
Ti       4.54463869       6.12321449      11.31322498        0       0.00105001      -0.00108449       0.00070110
O        3.03028360       7.00151864      12.23159545        3       0.00142605       0.00070525      -0.03522692
O        4.54488428       6.12421826       7.77784636        1       0.00033088       0.00032524       0.00162612
C        1.51371160       7.87672536       9.99265335        2      -0.00056923       0.00029187       0.00025282
Ti       1.51303067       9.62029789       8.69959989        0      -0.00050213      -0.00108234      -0.00129789
Ti       3.02868028       8.75248120      11.31291602        0       0.00117469       0.00132204       0.00124103
O        1.51665470       9.62498829      12.23159545        3       0.00200567       0.00005269      -0.01811757
O        3.02765683       8.74739937       7.77387807        1       0.00189817      -0.00209262       0.00191101
C        9.08643438      -0.00410398       9.98575145        2       0.00176910       0.00216443       0.00031995
Ti       9.08417773       1.74717877       8.69200019        0       0.00078891      -0.00159619      -0.00191866
Ti      10.61431725       0.87519304      11.28919218        0       0.00494996      -0.00049588      -0.00349250
O        9.08721344       1.71316423      12.23159545        3       0.00377014       0.00205700      -0.10299792
O       10.60191071       0.88146586       7.77797747        1       0.00131619       0.00043454       0.00325015
C        7.57499187       2.62593152      10.00289475        2       0.00172501       0.00155943       0.00023199
Ti       7.56889867       4.37790756       8.70814492        0       0.00061332       0.00070008      -0.00256308
Ti       9.11016853       3.51228156      11.35320554        0       0.00415774       0.00384938      -0.00238432
O        7.57325697       4.37550736      12.23159545        3       0.00305118       0.00017644      -0.01322096
O        9.08956819       3.50179140       7.79561341        1       0.00147757      -0.00151242      -0.00009864
C        6.06044417       5.24948327       9.99767671        2       0.00177535      -0.00109234       0.00108388
Ti       6.05829304       7.00077658       8.70226473        0       0.00030474       0.00052669      -0.00304077
Ti       7.57533624       6.12647696      11.31376470        0       0.00146467       0.00019186      -0.00242092
O        6.05901651       7.00303784      12.23159545        3       0.00073941      -0.00017464       0.00111449
O        7.57452682       6.12398257       7.78146475        1       0.00012566       0.00055931       0.00030503
C        4.54383815       7.87346691       9.99214540        2       0.00150482       0.00123360       0.00067361
Ti       4.54141376       9.62205357       8.69727529        0       0.00206720      -0.00140343      -0.00182560
Ti       6.05304775       8.74749875      11.31896757        0       0.00116678      -0.00174055       0.00073071
O        4.54569896       9.62451279      12.23159545        3       0.00038550       0.00336557      -0.01657765
O        6.05900137       8.74866701       7.77640782        1      -0.00038561      -0.00117771       0.00098137
C        0.06638357       0.06635898      16.00040110       10      -0.00733599      -0.00555245      -0.03337350
C        1.27091295       0.77071127      16.00878933       10       0.00039767       0.00145509      -0.01290371
C       -1.12940796       2.15405352      15.97603043       10       0.00155965       0.00097911       0.32317498
C        0.05987781       2.86757051      15.98366917       10       0.00055987       0.00212655       0.08780547
C       -2.36677934       4.30940933      15.97602488       10       0.00004217      -0.00079830       0.73861101
C       -1.15584521       4.97735424      15.98366661       10      -0.00010513       0.00053471       0.05167274
C       -3.58002908       6.38257039      16.00040055       10      -0.00319225       0.00289220       0.00711210
C       -2.36763748       7.07486671      16.00878913       10      -0.00069656      -0.00043614       0.00975734
C       -4.79023035       8.47103363      15.99850816       10      -0.00408512      -0.00062130      -0.00751189
C       -3.57966190       9.17070099      16.00979782       10       0.00697683       0.00482370       0.00802552
C        2.48320493       0.07096824      16.01082284       10      -0.00165432       0.00218705      -0.00364541
C        3.69188665       0.77160109      16.00979773       10      -0.00279160       0.00212193       0.01180078
C        1.27589414       2.16592536      16.00040131       10       0.00026378      -0.00063351      -0.01486743
C        2.48208048       2.87027916      15.99134118       10       0.00089192       0.00076044       0.01657956
C        0.06060482       4.27281246      15.95754129       10      -0.00249931       0.00135080       0.02525027
C        1.26838713       4.97004154      15.96921124       10      -0.00164156       0.00065299      -0.01675107
C       -1.15527980       6.38165383      16.00040055       10      -0.00047134       0.00187190       0.01761130
C        0.05731950       7.07279838      15.99134128       10       0.00064906       0.00069116       0.01494067
C       -2.36702606       8.47385866      16.01082305       10      -0.00037386      -0.00224050       0.03267197
C       -1.15657287       9.17047159      16.00979782       10      -0.00231251      -0.00214760       0.00312551
C        4.90105435       0.07099215      16.01082284       10      -0.00252777       0.00112177       0.02188127
C        6.11302648       0.77052191      16.00878933       10      -0.00175075       0.00156087       0.02323110
C        3.69129317       2.16994588      15.99850803       10      -0.00141066       0.00036796       0.00643400
C        4.90159991       2.87112458      15.99134118       10      -0.00386161      -0.00007734       0.04121217
C        2.48116886       4.26918716      15.97745768       10      -0.00115773       0.00130249       0.02388581
C        3.69260869       4.97115051      15.97466982       10      -0.00069597       0.00142759       0.01524650
C        1.26807011       6.37121411      15.97745758       10       0.00018042       0.00104987       0.03721067
C        2.48144167       7.06978594      15.97466971       10      -0.00002873       0.00043651       0.00150783
C        0.05542048       8.47004739      15.99850816       10      -0.00124322      -0.00002884       0.01926520
C        1.26712743       9.16635450      15.99134103       10      -0.00210875      -0.00147750       0.01655560
C        7.31827688       0.06561802      16.00040110       10      -0.00079701      -0.00051083       0.01252717
C        8.53371491       0.76756092      15.98366898       10      -0.00314684      -0.00095432       0.09760457
C        6.10662314       2.16630634      16.00040131       10      -0.00473710       0.00183602       0.00781441
C        7.32290364       2.86875472      15.98366917       10      -0.00471962       0.00057315       0.06669240
C        4.90414312       4.26965992      15.97745768       10      -0.00279773      -0.00082966       0.02432566
C        6.11687303       4.97100129      15.96921124       10      -0.00218549      -0.00228532       0.00530156
C        3.69297290       6.37037178      15.97159182       10       0.00008803       0.00192949       0.00457985
C        4.90455458       7.07008675      15.97466971       10      -0.00060161       0.00250438       0.01146964
C        2.47899505       8.46921154      15.97745741       10      -0.00294864      -0.00141930       0.03944058
C        3.69353055       9.16909507      15.96921083       10      -0.00394302      -0.00114874      -0.01448183
C        9.75359090       0.06655096      15.95754124       10      -0.00626181      -0.00286673      -0.04122138
C       10.97072719       0.76845323      15.98366898       10       0.00471720       0.00324924       0.04719728
C        8.50907293       2.15271069      15.97603043       10      -0.00806301      -0.00269629       0.36078992
C        9.74809335       2.86955304      15.73167117       10      -0.00658725      -0.00347760      -1.52988371
C        7.32530927       4.27474168      15.95754129       10      -0.00196044       0.00063143       0.00995392
C        8.54143658       4.97968716      15.98366661       10       0.00037351       0.00153704       0.10378358
C        6.11730481       6.37222370      15.97745758       10      -0.00358928      -0.00139148       0.02060799
C        7.32762943       7.07325491      15.99134128       10      -0.00435774       0.00024270       0.01871029
C        4.90656377       8.46997910      15.97745741       10      -0.00504495      -0.00169959       0.01081087
C        6.11815592       9.16728129      15.99134103       10       0.00613025      -0.00007587      -0.00758040
O        9.76591023       2.98258653      14.23328269       11       0.00048609       0.00683249      -0.00086181
H        9.45519081       2.16802055      13.76203661       12      -0.00016487      -0.00322644       0.00155118
