132
Lattice="12.12 0.0 0.0 -6.06 10.496227893867395 0.0 0.0 0.0 40.0" Properties=species:S:1:pos:R:3:tags:I:1:forces:R:3 energy=-1209.9303104797884 stress="0.0027993622697385077 -3.111716656534043e-06 -1.8869397760580257e-07 -3.111716656534043e-06 0.0027927532556683518 -7.019828753797182e-06 -1.8869397760580257e-07 -7.019828753797182e-06 0.0023768236441704007" pbc="T T F"
C        0.00263045      -0.00146502       9.99704886        2       0.00161169      -0.00345528      -0.00058623
Ti       0.00055085       1.75034384       8.69360036        0      -0.00024963      -0.00039584      -0.00056469
Ti       1.51330973       0.87665393      11.30981278        0      -0.00045313      -0.00090064       0.00172890
O        0.00129664       1.74370129      12.23159545        3       0.00158402       0.00101014       0.00756613
O        1.51291465       0.87752361       7.77005848        1      -0.00138584      -0.00032113       0.00194645
C       -1.51590437       2.62560952      10.01571854        2       0.00194658      -0.00060388      -0.00115694
Ti      -1.51600899       4.37776817       8.70236500        0       0.00033841      -0.00140118      -0.00228419
Ti      -0.00640687       3.49748477      11.32240775        0       0.00092723      -0.00080930      -0.00266169
O       -1.51472214       4.37789531      12.23159545        3       0.00177240      -0.00239506      -0.14708685
O       -0.00402223       3.50149847       7.77712556        1      -0.00063975      -0.00082028       0.00086280
C       -3.03169031       5.25112113      10.01186349        2       0.00031845       0.00165778      -0.00075969
Ti      -3.03210640       7.00058478       8.69916487        0      -0.00064351      -0.00178523      -0.00307142
Ti      -1.51509242       6.12287716      11.31442846        0      -0.00037258       0.00051863      -0.00053731
O       -3.03149816       7.00131894      12.23159545        3       0.00185846       0.00120545       0.00128430
O       -1.51761562       6.12295917       7.77596996        1      -0.00049579      -0.00167663       0.00147576
C       -4.54610723       7.87537411      10.00402735        2      -0.00163647      -0.00044329       0.00007918
Ti      -4.54664838       9.62222069       8.69255803        0      -0.00054626      -0.00113169      -0.00201936
Ti      -3.03240426       8.74978448      11.30870943        0      -0.00055780      -0.00132974       0.00256823
O       -4.54741879       9.62361611      12.23159545        3      -0.00038862      -0.00057293       0.00468659
O       -3.03216283       8.74560463       7.76855168        1       0.00015252      -0.00133564      -0.00001668
C        3.02770788       0.00093652      10.00168177        2       0.00040717      -0.00080294       0.00008762
Ti       3.02806193       1.75307090       8.69749125        0       0.00066433      -0.00220237      -0.00258857
Ti       4.54350128       0.87519792      11.30931716        0       0.00027363      -0.00079338       0.00342085
O        3.02783117       1.74935741      12.23159545        3       0.00093799      -0.00189556      -0.00884112
O        4.54341010       0.87808564       7.76959287        1       0.00071538      -0.00135554       0.00202065
C        1.51471804       2.62422931      10.00208711        2       0.00245506      -0.00174689       0.00007568
Ti       1.51340064       4.37473712       8.70072240        0       0.00001908       0.00027327      -0.00192319
Ti       3.02622123       3.49856189      11.31301236        0       0.00035015       0.00058614       0.00223144
O        1.51130177       4.37220941      12.23159545        3       0.00140542       0.00004537      -0.00082241
O        3.02850885       3.50281445       7.77365459        1       0.00044206      -0.00235739       0.00082241
C       -0.00148832       5.25062630      10.00714998        2       0.00091239       0.00164374      -0.00114738
Ti      -0.00146794       6.99932957       8.69728299        0       0.00067027      -0.00095487      -0.00235369
Ti       1.51221775       6.12410707      11.31305124        0       0.00161808      -0.00039845       0.00119898
O       -0.00062536       7.00115274      12.23159545        3       0.00005852       0.00205156       0.00952167
O        1.51299351       6.12326864       7.77366502        1       0.00036818       0.00009618       0.00072970
C       -1.51643234       7.87648729      10.00191151        2       0.00017549      -0.00005090       0.00055157
Ti      -1.51783650       9.62283544       8.69241365        0       0.00014836      -0.00087169      -0.00333292
Ti       0.00034359       8.75040516      11.30831374        0       0.00140645      -0.00115830       0.00185049
O       -1.51726122       9.62371154      12.23159545        3       0.00012869      -0.00017439      -0.02963347
O       -0.00203737       8.74639531       7.76811979        1      -0.00093595       0.00040251       0.00085922
C        6.05377213      -0.00240408       9.99788406        2      -0.00140741      -0.00165544       0.00046064
Ti       6.05615576       1.74958599       8.69641671        0      -0.00167535      -0.00209306      -0.00102272
Ti       7.57369896       0.87530588      11.29805444        0       0.00590498       0.00361987       0.00378353
O        6.05728242       1.74501113      12.23159545        3      -0.00102746      -0.00307357      -0.00693882
O        7.57435787       0.87867405       7.77338246        1       0.00088753       0.00011230       0.00417238
C        4.54232087       2.62446596      10.00444426        2      -0.00025192      -0.00133425       0.00118301
Ti       4.54342062       4.37559862       8.70007191        0      -0.00077905      -0.00032924      -0.00020665
Ti       6.05803431       3.49568850      11.32062524        0       0.00279809      -0.00040486       0.00309850
O        4.54139818       4.37349278      12.23159545        3       0.00094545      -0.00021332      -0.00338461
O        6.06001832       3.50114975       7.77742224        1       0.00031096      -0.00221061       0.00213762
C        3.02815269       5.25035757      10.00583460        2       0.00124413       0.00055118      -0.00019676
Ti       3.02835625       6.99850392       8.69610318        0       0.00002173      -0.00130837       0.00127771
Ti       4.54266464       6.12405314      11.31395770        0       0.00041532      -0.00162108       0.00345820
O        3.02869353       7.00125306      12.23159545        3       0.00069606      -0.00014923      -0.01537508
O        4.54384985       6.12349657       7.77364095        1      -0.00054648      -0.00158875       0.00138020
C        1.51331010       7.87458692      10.00217612        2       0.00154148      -0.00062238       0.00107233
Ti       1.51137259       9.62180536       8.69122995        0      -0.00029589      -0.00123798       0.00003052
Ti       3.02909896       8.75210512      11.30951753        0      -0.00001275       0.00031736       0.00338565
O        1.51380630       9.62451827      12.23159545        3      -0.00077557      -0.00035051      -0.01482114
O        3.02851723       8.74765883       7.77013188        1      -0.00155693      -0.00065849       0.00203593
C        9.08792341      -0.00135513      10.00163509        2      -0.00034099      -0.00288363      -0.00213423
Ti       9.08845474       1.74998454       8.69936931        0       0.00106047       0.00069814      -0.00072964
Ti      10.60764065       0.87400026      11.28853971        0      -0.00315348       0.00006183       0.00124209
O        9.09266064       1.73920533      12.23159545        3       0.00378706      -0.00000262       0.06387010
O       10.60225180       0.87901320       7.77216458        1      -0.00038959       0.00043207       0.00353071
C        7.57328968       2.62438270      10.01250815        2      -0.00125614      -0.00060789      -0.00291756
Ti       7.57216763       4.37633146       8.70296513        0       0.00049203      -0.00053347      -0.00246435
Ti       9.09292786       3.49935175      11.31903836        0      -0.00517193      -0.00099406      -0.00694924
O        7.57041589       4.37475586      12.23159545        3      -0.00343325       0.00271485      -0.03453507
O        9.08845183       3.50077259       7.78282878        1       0.00025778      -0.00131731      -0.00236820
C        6.05771472       5.24932125      10.00785963        2      -0.00168057       0.00057643      -0.00258944
Ti       6.05793470       6.99864525       8.70069727        0      -0.00059478      -0.00123500      -0.00104802
Ti       7.57470979       6.12255713      11.32295574        0       0.00070287      -0.00059344       0.00082295
O        6.05823081       7.00163655      12.23159545        3      -0.00017800      -0.00053098      -0.00340028
O        7.57387523       6.12240213       7.77735765        1       0.00022980      -0.00117844       0.00146878
C        4.54338150       7.87407017      10.00281528        2      -0.00015507      -0.00134461       0.00102625
Ti       4.54454819       9.62249143       8.69236336        0      -0.00049995      -0.00048986      -0.00080170
Ti       6.05619834       8.75042568      11.31201125        0      -0.00089319       0.00016042       0.00200877
O        4.54588126       9.62431626      12.23159545        3       0.00045520      -0.00312039      -0.00180315
O        6.05827362       8.74588904       7.76991352        1       0.00022601      -0.00017484       0.00225165
C        0.06408399       0.07055930      16.56882215       10       0.00123585       0.00101977       0.00901448
C        1.26962296       0.77465327      16.57721038       10      -0.00152724       0.00043795       0.01660775
C       -1.12913286       2.15872947      16.54445148       10      -0.00003388      -0.00091652       0.37897194
C        0.05843036       2.87245647      16.55209022       10       0.00145227       0.00058855       0.04718917
C       -2.36764840       4.31327470      16.54444593       10      -0.00190852       0.00520020       0.66274266
C       -1.15691025       4.98206372      16.55208766       10       0.00174082       0.00294075       0.02419653
C       -3.58164468       6.38668246      16.56882160       10      -0.00115644       0.00174587       0.00399259
C       -2.36994360       7.07930381      16.57721018       10      -0.00279537       0.00292847       0.00475993
C       -4.79275669       8.47516282      16.56692921       10       0.00130208       0.00008268       0.01064324
C       -3.58109805       9.17462171      16.57821887       10      -0.00394080      -0.00040179       0.00296940
C        2.48108047       0.07537263      16.57924389       10      -0.00251783      -0.00062966       0.02113516
C        3.68964591       0.77583122      16.57821878       10      -0.00088017       0.00134308       0.00278047
C        1.27429398       2.17029081      16.56882236       10       0.00034959       0.00118978       0.01122705
C        2.47994691       2.87470434      16.55976223       10      -0.00216140       0.00415846       0.01063395
C        0.05887826       4.27682478      16.52596234       10       0.00437070       0.00179965       0.00164496
C        1.26621200       4.97413389      16.53763229       10       0.00279905       0.00214876      -0.01876359
C       -1.15651009       6.38611409      16.56882160       10      -0.00194560       0.00198120       0.00833850
C        0.05540878       7.07705059      16.55976233       10      -0.00107284      -0.00119182       0.00736296
C       -2.36984585       8.47824398      16.57924410       10      -0.00302125       0.00259650       0.01914376
C       -1.15868213       9.17472459      16.57821887       10      -0.00015398       0.00034902       0.00261132
C        4.89820860       0.07459213      16.57924389       10       0.00304978       0.00143349       0.02080056
C        6.11002532       0.77537748      16.57721038       10       0.00453253       0.00133764       0.02074969
C        3.68909455       2.17398574      16.56692908       10      -0.00135717       0.00403964       0.00219367
C        4.89910912       2.87526068      16.55976223       10       0.00164743       0.00131733       0.02663109
C        2.47816506       4.27357637      16.54587873       10      -0.00090709       0.00191036       0.00731877
C        3.69096201       4.97520178      16.54309087       10      -0.00160788      -0.00197501       0.00470434
C        1.26542535       6.37557043      16.54587863       10      -0.00159959      -0.00082328       0.02118485
C        2.47933317       7.07430657      16.54309076       10      -0.00337067       0.00018981      -0.00261846
C        0.05318400       8.47440812      16.56692921       10      -0.00043670      -0.00154647       0.01847652
C        1.26506999       9.17139988      16.55976208       10      -0.00164174       0.00131200       0.02263041
C        7.31602031       0.06966389      16.56882215       10       0.00202272       0.00023121       0.00430847
C        8.53143224       0.77244141      16.55209003       10       0.00068706      -0.00034817       0.04518738
C        6.10473847       2.17034103      16.56882236       10       0.00239343       0.00039386       0.01743725
C        7.32150518       2.87293294      16.55209022       10       0.00137439      -0.00139152       0.04663642
C        4.90138695       4.27408542      16.54587873       10      -0.00017069       0.00033352       0.01147861
C        6.11512001       4.97524456      16.53763229       10       0.00042603      -0.00076091       0.00315259
C        3.68992731       6.37563147      16.54001287       10      -0.00250409      -0.00183203      -0.00514931
C        4.90253894       7.07485338      16.54309076       10       0.00028536      -0.00023844       0.00089383
C        2.47728321       8.47449780      16.54587846       10      -0.00179398       0.00194387       0.01936925
C        3.69075071       9.17374347      16.53763188       10      -0.00068077       0.00343605      -0.01242523
C        9.75108564       0.07146038      16.52596229       10      -0.00034544       0.00251947      -0.03706223
C       10.96903775       0.77324765      16.55209003       10      -0.00141710      -0.00163773       0.05917492
C        8.50756510       2.15759189      16.54445148       10       0.00051184      -0.00142058       0.35956805
C        9.74772549       2.87322327      16.30009222       10       0.00044748       0.00178003      -1.81054113
C        7.32322907       4.27903651      16.52596234       10      -0.00080758      -0.00257282      -0.00650369
C        8.53877474       4.98297977      16.55208766       10      -0.00362939       0.00170866       0.05489935
C        6.11501915       6.37686678      16.54587863       10       0.00310944       0.00003087       0.00505683
C        7.32516043       7.07764906      16.55976233       10       0.00199125       0.00138960       0.00555847
C        4.90419383       8.47464455      16.54587846       10       0.00177638       0.00346293       0.01349516
C        6.11562663       9.17161857      16.55976208       10       0.00172872       0.00063764       0.02420252
O        9.76319956       2.98533503      14.76880861       11      -0.00543457      -0.00169949      -0.00460730
H        9.58749518       2.12889052      14.32962286       12       0.00032317       0.00873045       0.00240446
