130
Lattice="12.12 0.0 0.0 -6.06 10.496227893867395 0.0 0.0 0.0 40.0" Properties=species:S:1:pos:R:3:tags:I:1:forces:R:3 energy=-1202.045569668723 stress="0.002874048311850208 -5.764122238893223e-08 -6.557644248739386e-09 -5.764122238893223e-08 0.002873971277367363 -5.441572511573836e-08 -6.557644248739386e-09 -5.441572511573836e-08 0.002711380927771054" pbc="T T F"
C       -0.00001033      -0.00001194      10.00619608        2       0.00008353       0.00022391      -0.00534702
Ti       0.00006601       1.74927131       8.71808364        0      -0.00017065      -0.00055962      -0.00187248
Ti       1.51525763       0.87489493      11.30789098        0      -0.00118611      -0.00116854       0.00690062
O        0.00005865       1.74913012      12.23008024        3       0.00046326       0.00087476      -0.12948804
O        1.51491162       0.87464251       7.77990160        1       0.00015289       0.00012015       0.00145261
C       -1.51512054       2.62410767      10.00557400        2      -0.00000112       0.00047135      -0.00445345
Ti      -1.51495379       4.37336258       8.71714641        0      -0.00001154      -0.00016898      -0.00126473
Ti      -0.00002323       3.49911192      11.30618199        0      -0.00094100      -0.00174389       0.00624745
O       -1.51471853       4.37295958      12.23008024        3       0.00070408       0.00008542      -0.12739489
O        0.00001276       3.49871582       7.77983967        1       0.00012538       0.00026419       0.00135948
C       -3.03017592       5.24803158      10.00545185        2       0.00018456      -0.00015933      -0.00383446
Ti      -3.03003418       6.99751596       8.71713147        0      -0.00014853       0.00030502      -0.00158882
Ti      -1.51549196       6.12259360      11.30629724        0      -0.00095591       0.00023888       0.00638871
O       -3.03035728       6.99792047      12.23008024        3       0.00046205      -0.00024042      -0.12598561
O       -1.51486648       6.12287440       7.77987816        1       0.00001449      -0.00000603       0.00143781
C       -4.54504234       7.87204839      10.00549898        2       0.00005723      -0.00051573      -0.00487933
Ti      -4.54503656       9.62167034       8.71797463        0      -0.00035002       0.00005085      -0.00210347
Ti      -3.02997275       8.74663013      11.30600344        0      -0.00132164       0.00037289       0.00721899
O       -4.54504226       9.62168780      12.23008024        3       0.00050402       0.00007471      -0.13177312
O       -3.02998675       8.74687666       7.77981365        1       0.00014056      -0.00008749       0.00170273
C        3.03009472       0.00000847      10.00566252        2       0.00053830       0.00051339      -0.00452175
Ti       3.02973812       1.74921813       8.71685930        0      -0.00039378      -0.00053143      -0.00083081
Ti       4.54482096       0.87483728      11.30381429        0      -0.00023819      -0.00071724       0.00603169
O        3.02981617       1.74912514      12.23008024        3       0.00052232       0.00090871      -0.13820024
O        4.54496723       0.87453842       7.77936157        1       0.00003500       0.00006955       0.00144997
C        1.51510565       2.62414184      10.00566862        2       0.00048737       0.00070427      -0.00388151
Ti       1.51495993       4.37339836       8.71720785        0      -0.00035256      -0.00020110      -0.00089004
Ti       3.03001095       3.49866159      11.30381878        0      -0.00016886      -0.00097081       0.00518995
O        1.51467642       4.37292208      12.23008024        3       0.00042006       0.00044430      -0.12731136
O        3.02988366       3.49874793       7.77932502        1       0.00004051       0.00013873       0.00130253
C       -0.00005687       5.24817741      10.00609229        2       0.00045875       0.00011701      -0.00359732
Ti      -0.00002216       6.99745871       8.71817185        0      -0.00024293       0.00011626      -0.00205973
Ti       1.51549608       6.12272426      11.30672724        0      -0.00012127       0.00062754       0.00518147
O       -0.00006203       6.99749320      12.23008024        3       0.00047024      -0.00039291      -0.10691347
O        1.51483418       6.12288952       7.77993832        1       0.00009877      -0.00011396       0.00124573
C       -1.51503602       7.87209709      10.00616310        2       0.00070740      -0.00023807      -0.00413673
Ti      -1.51500397       9.62148953       8.71734850        0      -0.00036874      -0.00014954      -0.00149593
Ti       0.00006981       8.74728889      11.30728850        0      -0.00009755       0.00058104       0.00602043
O       -1.51572314       9.62158137      12.23008024        3       0.00031948       0.00006826      -0.12314780
O       -0.00000668       8.74667102       7.78003673        1      -0.00002964      -0.00001687       0.00124072
C        6.06002144       0.00006552      10.00553822        2      -0.00004659       0.00000451      -0.00358701
Ti       6.05999478       1.74951792       8.71696081        0       0.00012397      -0.00039870      -0.00114873
Ti       7.57533156       0.87496498      11.30364448        0       0.00103563       0.00001219       0.00602307
O        6.06003989       1.74867220      12.23008024        3      -0.00034059       0.00033401      -0.11732758
O        7.57502463       0.87452816       7.77929421        1      -0.00015660       0.00002112       0.00146579
C        4.54510313       2.62407863      10.00531713        2       0.00013194       0.00050898      -0.00303314
Ti       4.54513974       4.37332010       8.71697249        0       0.00001109       0.00018102      -0.00101166
Ti       6.05981407       3.49844916      11.30733957        0       0.00088352      -0.00022813       0.00376227
O        4.54458846       4.37360980      12.23008024        3      -0.00075473       0.00004034      -0.11594338
O        6.06000311       3.49871114       7.77932982        1      -0.00006839       0.00005285       0.00086528
C        3.03014542       5.24808395      10.00544693        2      -0.00010075      -0.00019935      -0.00294648
Ti       3.02999430       6.99746622       8.71716124        0       0.00015558       0.00050677      -0.00105860
Ti       4.54548728       6.12282750      11.30356924        0       0.00089542       0.00118964       0.00552051
O        3.03041429       6.99775398      12.23008024        3      -0.00049538      -0.00092140      -0.12066857
O        4.54489929       6.12286342       7.77922034        1      -0.00005672      -0.00014618       0.00149360
C        1.51495315       7.87211820      10.00620457        2      -0.00013230      -0.00041419      -0.00369038
Ti       1.51496625       9.62148785       8.71731212        0       0.00033960       0.00005044      -0.00131314
Ti       3.03003932       8.74673227      11.30599711        0       0.00140130       0.00144227       0.00640338
O        1.51550051       9.62168236      12.23008024        3      -0.00017890      -0.00033847      -0.11857074
O        3.02997035       8.74685898       7.77979564        1      -0.00012664      -0.00024026       0.00146584
C        9.08993509       0.00002562      10.00552317        2      -0.00051173      -0.00010331      -0.00452085
Ti       9.09028213       1.74922301       8.71666244        0       0.00036417      -0.00024757      -0.00085916
Ti      10.60495791       0.87479534      11.30707338        0       0.00019356      -0.00055206       0.00717532
O        9.09047220       1.74893511      12.23008024        3      -0.00036822       0.00013141      -0.13909940
O       10.60514156       0.87464525       7.77977319        1      -0.00009096       0.00003925       0.00155847
C        7.57498495       2.62406383      10.00531823        2      -0.00067126       0.00027237      -0.00355065
Ti       7.57485724       4.37332380       8.71706040        0       0.00036608       0.00023156      -0.00154072
Ti       9.08991645       3.49852117      11.30367080        0       0.00009398      -0.00075304       0.00612816
O        7.57541095       4.37354414      12.23008024        3      -0.00022949      -0.00011547      -0.11690374
O        9.09011372       3.49874938       7.77924505        1      -0.00009653       0.00016713       0.00150062
C        6.06004346       5.24807390      10.00531499        2      -0.00052202      -0.00068696      -0.00327964
Ti       6.06002115       6.99779658       8.71660952        0       0.00021815       0.00050244      -0.00111085
Ti       7.57459035       6.12273545      11.30359141        0       0.00011091       0.00077425       0.00640267
O        6.06000406       6.99833044      12.23008024        3      -0.00045149      -0.00064233      -0.13591256
O        7.57508615       6.12285516       7.77920167        1      -0.00000933      -0.00012076       0.00170018
C        4.54504177       7.87207824      10.00545011        2      -0.00050420      -0.00078669      -0.00424864
Ti       4.54504952       9.62160368       8.71776797        0       0.00039528       0.00026241      -0.00175906
Ti       6.06000134       8.74682218      11.30671272        0       0.00003348       0.00092841       0.00746454
O        4.54472110       9.62145819      12.23008024        3      -0.00067133      -0.00055194      -0.13255409
O        6.06002838       8.74700637       7.77970261        1      -0.00003779      -0.00022575       0.00171330
C        0.04503943       0.06751752      15.88271182       10      -0.00392191      -0.00262287       0.01705172
C        1.25723627       0.76738184      15.88271182       10       0.00177933       0.00067216       0.05695939
C       -1.16744510       2.16717845      15.88271182       10       0.00078584      -0.00519137       0.02609124
C        0.04491576       2.86675281      15.88271182       10       0.00040031       0.00070995       0.04591975
C       -2.37913041       4.26623998      15.88271182       10       0.00025198      -0.00295239       0.03584956
C       -1.16701619       4.96581904      15.88271182       10       0.00121284       0.00121216       0.02691612
C       -3.59079228       6.36519023      15.88271182       10      -0.00109385      -0.00340762       0.03943058
C       -2.37879747       7.06495892      15.88271182       10      -0.00150915       0.00250378       0.02537205
C       -4.80293102       8.46410479      15.88271182       10      -0.00190915      -0.00115848       0.02685874
C       -3.59093765       9.16420023      15.88271182       10       0.00447720      -0.00091350       0.04162655
C        2.46952356       0.06757698      15.88271182       10      -0.00251458       0.00193686       0.03239918
C        3.68131486       0.76739062      15.88271182       10      -0.00271370      -0.00325773       0.04283244
C        1.25720334       2.16716100      15.88271182       10       0.00060828      -0.00343971       0.02873559
C        2.46912989       2.86665268      15.88271182       10      -0.00105174       0.00113572       0.04484987
C        0.04503684       4.26629931      15.88271182       10      -0.00123983      -0.00202753       0.04219935
C        1.25711946       4.96579409      15.88271182       10      -0.00064563       0.00195399       0.03058643
C       -1.16677634       6.36527555      15.88271182       10      -0.00617190      -0.00199498       0.06880091
C        0.04520461       7.06496412      15.88271182       10      -0.00195575       0.00078124       0.03096871
C       -2.37882962       8.46442954      15.88271182       10      -0.00157980       0.00146535       0.04544462
C       -1.16692880       9.16431968      15.88271182       10       0.00098564      -0.00541547       0.03125321
C        4.89333700       0.06749120      15.88271182       10      -0.00205243       0.00556743       0.04163548
C        6.10504329       0.76757351      15.88271182       10      -0.00238374      -0.00377717       0.03106162
C        3.68123985       2.16697943      15.88271182       10       0.00201609      -0.00023006       0.02674465
C        4.89287552       2.86669550      15.88271182       10       0.00173676      -0.00200337       0.04388760
C        2.46911787       4.26620642      15.88271182       10       0.00196950       0.00009862       0.03740082
C        3.68113279       4.96577718      15.88271182       10      -0.00219622      -0.00000194       0.03342644
C        1.25723254       6.36520842      15.88271182       10      -0.00161339       0.00170136       0.06992824
C        2.46909228       7.06501659      15.88271182       10      -0.00220681       0.00079736       0.02632374
C        0.04497280       8.46449951      15.88271182       10       0.00243761       0.00330047       0.07114953
C        1.25684311       9.16434442      15.88271182       10       0.00194864      -0.00549202       0.02865897
C        7.31682558       0.06753308      15.88271182       10      -0.00092025       0.00527612       0.04388810
C        8.52881922       0.76739445      15.88271182       10       0.00095288      -0.00147701       0.03996842
C        6.10479318       2.16709579      15.88271182       10       0.00172801      -0.00035331       0.03915731
C        7.31664605       2.86662765      15.88271182       10       0.00618373       0.00162150       0.04342725
C        4.89313914       4.26605848      15.88271182       10       0.00038809      -0.00175640       0.03847726
C        6.10495817       4.96571330      15.88271182       10       0.00144762       0.00163855       0.04226796
C        3.68098348       6.36521207      15.88271182       10       0.00108994      -0.00128545       0.04300401
C        4.89305221       7.06487273      15.88271182       10      -0.00061316       0.00337392       0.04139021
C        2.46879239       8.46447598      15.88271182       10       0.00335775       0.00313820       0.04893367
C        3.68082257       9.16427364      15.88271182       10       0.00226650      -0.00149996       0.03811380
C        9.74063984       0.06761227      15.88271182       10      -0.00426096       0.00122014       0.03383619
C       10.95277829       0.76738626      15.88271182       10       0.00139085       0.00118311       0.05842293
C        8.52843732       2.16701717      15.88271182       10       0.00160370      -0.00198386       0.02759654
C        9.74064892       2.86662945      15.88271182       10       0.00099564       0.00329512       0.04567164
C        7.31678858       4.26601187      15.88271182       10      -0.00089920      -0.00097034       0.03823144
C        8.52889577       4.96572771      15.88271182       10       0.00016916       0.00312277       0.03617731
C        6.10505537       6.36495160      15.88271182       10      -0.00040110      -0.00107514       0.02934903
C        7.31709141       7.06480559      15.88271182       10      -0.00071406       0.00513827       0.04511044
C        4.89280302       8.46415769      15.88271182       10      -0.00139420      -0.00064535       0.03101167
C        6.10487604       9.16399047      15.88271182       10       0.00375664       0.00271883       0.05719867
