132
Lattice="12.12 0.0 0.0 -6.06 10.496227893867395 0.0 0.0 0.0 40.0" Properties=species:S:1:pos:R:3:tags:I:1:forces:R:3 energy=-1209.4551917649108 stress="0.0028006682061735323 6.685713072708604e-07 1.5003029820191077e-06 6.685713072708604e-07 0.0027994583226093835 3.1678126870809077e-06 1.5003029820191077e-06 3.1678126870809077e-06 0.002101720893216165" pbc="T T F"
C        0.00214178       0.00437477      10.00063127        2      -0.00019114       0.00187465       0.00091297
Ti       0.00074250       1.75398442       8.69362741        0      -0.00037159       0.00017822      -0.00374131
Ti       1.51398894       0.88074568      11.31192673        0       0.00105309       0.00057489      -0.00242605
O       -0.00003074       1.75484811      12.23159545        3      -0.00175792       0.00076809       0.08108911
O        1.51406174       0.88108577       7.77119094        1      -0.00002861       0.00147685      -0.00216308
C       -1.51571715       2.63058442      10.00935715        2      -0.00093823       0.00001296       0.00266159
Ti      -1.51571812       4.38073864       8.69449750        0      -0.00071523      -0.00024834      -0.00515107
Ti      -0.00186460       3.50427563      11.31595378        0       0.00042345      -0.00036253      -0.00135380
O       -1.51434782       4.38015961      12.23159545        3      -0.00096908      -0.00047689       0.01583029
O       -0.00223058       3.50438890       7.77555519        1       0.00179251       0.00033095       0.00107231
C       -3.03053700       5.25629787      10.00483222        2       0.00063627       0.00028367       0.00034979
Ti      -3.03088441       7.00378908       8.69316686        0       0.00138027       0.00120856       0.00070185
Ti      -1.51630167       6.12850731      11.31790240        0       0.00129050       0.00163865      -0.00241290
O       -3.03120016       7.00513821      12.23159545        3      -0.00043284      -0.00286136       0.10883772
O       -1.51554210       6.12774676       7.77397331        1       0.00097142       0.00132251      -0.00095883
C       -4.54591287       7.87813284      10.00239571        2      -0.00142184       0.00012735       0.00055618
Ti      -4.54505608       9.62645154       8.68967707        0       0.00237269       0.00053019       0.00111305
Ti      -3.03061250       8.75363744      11.31026117        0      -0.00112353       0.00077470      -0.00183130
O       -4.54594422       9.62691133      12.23159545        3      -0.00102691       0.00145233       0.08173482
O       -3.03042643       8.75153760       7.76941154        1       0.00196788       0.00124103       0.00157089
C        3.02932721       0.00546244      10.00196632        2       0.00110823       0.00096881       0.00500528
Ti       3.02986892       1.75554383       8.69284723        0      -0.00041102       0.00101974       0.00098123
Ti       4.54503621       0.88067174      11.31086036        0      -0.00121520       0.00115405       0.00041856
O        3.02992850       1.75463869      12.23159545        3      -0.00067804       0.00161200       0.09527626
O        4.54469022       0.88064907       7.77046411        1       0.00191906       0.00054713       0.00231705
C        1.51545917       2.62925028      10.00358558        2      -0.00000342      -0.00082707      -0.00061108
Ti       1.51420666       4.37901548       8.69499560        0       0.00126345       0.00129095      -0.00175123
Ti       3.02973227       3.50437325      11.31028049        0       0.00124771      -0.00070195      -0.00100115
O        1.51386654       4.37816241      12.23159545        3      -0.00143502       0.00022478       0.08945603
O        3.02890130       3.50492734       7.77205323        1       0.00037633       0.00135485       0.00096088
C        0.00006307       5.25456385      10.00513247        2      -0.00127469       0.00029295      -0.00158176
Ti       0.00011246       7.00342091       8.69431749        0      -0.00009091      -0.00154202       0.00028358
Ti       1.51518681       6.12846754      11.31072282        0      -0.00222538       0.00046267      -0.00230776
O        0.00033007       7.00461628      12.23159545        3      -0.00039240      -0.00266895       0.16876542
O        1.51410435       6.12773007       7.77246484        1       0.00041261       0.00082862       0.00236543
C       -1.51559456       7.87788383      10.00372033        2       0.00061125       0.00082381       0.00348590
Ti      -1.51572443       9.62681882       8.69139952        0      -0.00242129       0.00001603       0.00046123
Ti       0.00007530       8.75393437      11.31086775        0       0.00267966      -0.00175350       0.00153883
O       -1.51613331       9.62792103      12.23159545        3       0.00183107       0.00016219       0.10220919
O       -0.00053100       8.75174332       7.77030819        1      -0.00012823       0.00264245       0.00200276
C        6.05777056       0.00473119      10.00108535        2       0.00164875       0.00102494       0.00467141
Ti       6.05861748       1.75465450       8.69281717        0       0.00096349      -0.00047555      -0.00251937
Ti       7.57585353       0.88199595      11.30588872        0      -0.00203504      -0.00138563       0.00030048
O        6.05997085       1.75339138      12.23159545        3       0.00361316       0.00217479       0.15207479
O        7.57530786       0.88162355       7.77234463        1      -0.00073055      -0.00100233       0.00023082
C        4.54536366       2.62944539      10.00343710        2       0.00046239       0.00269273       0.00051487
Ti       4.54480266       4.37902605       8.69237280        0      -0.00092992       0.00172327      -0.00155677
Ti       6.06084294       3.50344268      11.31301669        0      -0.00077908       0.00099502       0.00069148
O        4.54516795       4.37892340      12.23159545        3       0.00045049       0.00133547       0.13913360
O        6.06126581       3.50431091       7.77355057        1      -0.00077912       0.00137673      -0.00065708
C        3.03017874       5.25401368      10.00407961        2      -0.00168992       0.00161555       0.00338276
Ti       3.02936862       7.00370176       8.69174947        0       0.00059919      -0.00043161       0.00152720
Ti       4.54434847       6.12843417      11.31058295        0       0.00164089       0.00038170      -0.00137237
O        3.03002732       7.00508664      12.23159545        3       0.00086292      -0.00000174       0.10438501
O        4.54379717       6.12820960       7.77072501        1       0.00160582       0.00038418       0.00519473
C        1.51434081       7.87904102      10.00325178        2       0.00257944      -0.00111733       0.00014468
Ti       1.51320038       9.62691692       8.69116577        0       0.00057644       0.00103215      -0.00245774
Ti       3.03044648       8.75495839      11.31116397        0      -0.00041693       0.00165698       0.00014988
O        1.51475068       9.62828034      12.23159545        3       0.00261846       0.00403741       0.10810375
O        3.02938925       8.75360304       7.77136804        1       0.00021589       0.00026387       0.00299830
C        9.08907189       0.00622043      10.00327639        2      -0.00066852       0.00132509       0.00164906
Ti       9.08911533       1.75496175       8.69404892        0       0.00067623       0.00152478      -0.00812898
Ti      10.60505271       0.88297927      11.30006715        0       0.00237618      -0.00082855      -0.00098559
O        9.09190971       1.75522795      12.23159545        3       0.00005224       0.00011433       0.13970803
O       10.60416082       0.88250081       7.77274458        1       0.00026883      -0.00020314       0.00044261
C        7.57462270       2.62977253      10.00590864        2       0.00047045      -0.00084223       0.00046658
Ti       7.57476863       4.38024506       8.69529652        0       0.00210808      -0.00074319      -0.00608581
Ti       9.08885800       3.50663144      11.31284611        0       0.00109513       0.00230068       0.00318569
O        7.57395070       4.38107719      12.23159545        3       0.00067521      -0.00134215       0.11205842
O        9.09049120       3.50468241       7.77506481        1      -0.00031060      -0.00089523       0.00319014
C        6.05881601       5.25457688      10.00276053        2       0.00031373      -0.00093171       0.00161025
Ti       6.05910889       7.00271724       8.69227712        0      -0.00083942       0.00060037      -0.00073694
Ti       7.57386412       6.12983024      11.31113897        0      -0.00199297       0.00183228       0.00001356
O        6.05881963       7.00511165      12.23159545        3      -0.00029509      -0.00164171       0.09032958
O        7.57521365       6.12753990       7.77230000        1      -0.00127657       0.00106166      -0.00054384
C        4.54436806       7.87865272      10.00223466        2      -0.00138198       0.00193795       0.00310633
Ti       4.54526760       9.62756036       8.69203527        0       0.00056987       0.00002083      -0.00439643
Ti       6.05784817       8.75431425      11.31053627        0       0.00029603      -0.00061744       0.00044528
O        4.54435124       9.62962590      12.23159545        3      -0.00060825       0.00367999       0.09310762
O        6.05923186       8.75261087       7.77026630        1      -0.00130842      -0.00042822      -0.00040370
C        0.06035253       0.06501958      17.42145373       10      -0.00198149       0.00119175      -0.02386685
C        1.26661363       0.76960110      17.42984196       10      -0.00063534      -0.00097144      -0.01238182
C       -1.13261845       2.15463103      17.39708306       10       0.00295504       0.00289917       0.36077246
C        0.05453145       2.86737922      17.40472180       10       0.00554237      -0.00177064       0.00092852
C       -2.37359490       4.30502236      17.39707751       10      -0.00133333       0.00016746       0.49676830
C       -1.16188862       4.97669229      17.40471924       10      -0.00250120       0.00026899      -0.03848885
C       -3.58661207       6.37917156      17.42145318       10       0.00333847      -0.00111070      -0.02861198
C       -2.37344258       7.07312914      17.42984176       10       0.00082392       0.00308612      -0.01679976
C       -4.79652222       8.46826483      17.41956079       10      -0.00029159      -0.00052982      -0.02631107
C       -3.58454107       9.16819117      17.43085045       10      -0.00295140       0.00372631      -0.03476427
C        2.47788978       0.06995738      17.43187547       10      -0.00145627       0.00181187      -0.02324395
C        3.68672499       0.77092907      17.43085036       10      -0.00152848       0.00074725      -0.04042039
C        1.27089134       2.16617600      17.42145394       10       0.00459888      -0.00264306      -0.01731090
C        2.47649167       2.87069358      17.41239381       10       0.00226783      -0.00060626      -0.03429161
C        0.05353082       4.27235459      17.37859392       10      -0.00324850      -0.00334338      -0.05470107
C        1.26101178       4.96981834      17.39026387       10      -0.00343232      -0.00542794      -0.03677384
C       -1.16134815       6.37932678      17.42145318       10       0.00013062       0.00067637      -0.03352621
C        0.05094465       7.07134354      17.41239391       10       0.00144335      -0.00236025       0.01283870
C       -2.37342206       8.47166414      17.43187568       10      -0.00410372       0.00351194      -0.03368815
C       -1.16187157       9.16861346      17.43085045       10      -0.00316826       0.00023507      -0.02285512
C        4.89543762       0.07049927      17.43187547       10      -0.00206528      -0.00097143      -0.02406675
C        6.10624976       0.76974994      17.42984196       10      -0.00101553      -0.00415712      -0.02251730
C        3.68686631       2.17012781      17.41956066       10      -0.00070576       0.00006552      -0.02746483
C        4.89645897       2.87035954      17.41239381       10      -0.00497955       0.00260752      -0.03144381
C        2.47475048       4.26890310      17.39851031       10      -0.00128375      -0.00064058      -0.03476199
C        3.68627826       4.97004607      17.39572245       10      -0.00229650       0.00358957      -0.03485190
C        1.26122274       6.37047888      17.39851021       10       0.00021328      -0.00645572      -0.02945022
C        2.47378764       7.06963794      17.39572234       10       0.00045064      -0.00594467      -0.02892383
C        0.04915968       8.46904787      17.41956079       10      -0.00146975      -0.00149757      -0.03380509
C        1.26040791       9.16585362      17.41239366       10       0.00096105      -0.00398922      -0.00417821
C        7.31171859       0.06578671      17.42145373       10       0.00301074      -0.00337997      -0.03474231
C        8.52577773       0.76875538      17.40472161       10       0.00352327      -0.00280465       0.00235946
C        6.10190580       2.16623730      17.42145394       10      -0.00814274      -0.00320470       0.00124217
C        7.31781461       2.86720723      17.40472180       10      -0.00712779      -0.00333261      -0.01423931
C        4.89875997       4.26850150      17.39851031       10      -0.00331578       0.00349014      -0.01096740
C        6.11167845       4.96899443      17.39026387       10      -0.00087201       0.00033053      -0.04050495
C        3.68613719       6.36926113      17.39264445       10       0.00304204       0.00193524      -0.04115342
C        4.89756768       7.06893179      17.39572234       10       0.00432221       0.00074982      -0.04285293
C        2.47243589       8.46952982      17.39851004       10       0.00031586      -0.00706975      -0.02704494
C        3.68558084       9.16925025      17.39026346       10       0.00115364      -0.00608888      -0.03322279
C        9.74571528       0.06770830      17.37859387       10       0.00317625      -0.00465479      -0.06571366
C       10.96584406       0.76880803      17.40472161       10       0.00063811       0.00278700       0.01395552
C        8.50391948       2.15471534      17.39708306       10      -0.00243114      -0.00171498       0.36585575
C        9.74567349       2.86864766      17.15272380       10       0.00142677      -0.00003973      -1.73578131
C        7.31929831       4.27241251      17.37859392       10      -0.00249119      -0.00233044      -0.01612243
C        8.53525835       4.97670971      17.40471924       10      -0.00075019      -0.00210889      -0.03596784
C        6.11088957       6.36941051      17.39851021       10       0.00315641      -0.00011799      -0.02477328
C        7.32116374       7.07084268      17.41239391       10       0.00417338      -0.00176893      -0.04152708
C        4.89936019       8.46864578      17.39851004       10       0.00249899      -0.00129738      -0.01582064
C        6.11152586       9.16524880      17.41239366       10       0.00101749       0.00096515      -0.01136169
O        9.74782138       2.94563979      15.60140234       11      -0.00328896       0.00541055      -0.00092784
H        9.70519683       2.04586896      15.22232110       12      -0.00009464       0.00412119      -0.00013639
