132
Lattice="12.12 0.0 0.0 -6.06 10.496227893867395 0.0 0.0 0.0 40.0" Properties=species:S:1:pos:R:3:tags:I:1:forces:R:3 energy=-1209.9253213449635 stress="0.002772631208836902 -4.222798863653589e-06 7.32781487984206e-07 -4.222798863653589e-06 0.0027618393835053207 -5.679942393561112e-06 7.32781487984206e-07 -5.679942393561112e-06 0.002583210903452046" pbc="T T F"
C       -0.00030163       0.00035807       9.99767373        2       0.00050454      -0.00021635       0.00062439
Ti      -0.00105709       1.75400717       8.70090809        0       0.00304975      -0.00167881       0.00311157
Ti       1.51268978       0.87998544      11.31793531        0       0.00173667      -0.00167487      -0.00046516
O        0.00102271       1.74440825      12.23159545        3       0.00103350       0.00026313      -0.00856040
O        1.51099123       0.88005341       7.77661914        1       0.00248407      -0.00202506       0.00097060
C       -1.51804899       2.62860610      10.01683839        2      -0.00049027       0.00124416      -0.00283357
Ti      -1.51595377       4.38023891       8.71081807        0       0.00052829      -0.00101005       0.00077038
Ti      -0.00949286       3.50047251      11.32760190        0       0.00066089       0.00194462      -0.00205705
O       -1.51223181       4.38643726      12.23159545        3      -0.00180175      -0.00020226      -0.18843254
O       -0.00480759       3.50389293       7.78208214        1       0.00290231      -0.00173300      -0.00079553
C       -3.03332750       5.25151271      10.01112175        2      -0.00094163       0.00039969      -0.00274178
Ti      -3.03264715       7.00145027       8.70536675        0       0.00029515       0.00203344       0.00182572
Ti      -1.51632551       6.12737320      11.31412234        0       0.00290077       0.00060580      -0.00113250
O       -3.03192900       7.00438917      12.23159545        3      -0.00121032      -0.00148191       0.02316229
O       -1.51841143       6.12490500       7.78093747        1       0.00083879       0.00206264      -0.00078067
C       -4.54747782       7.87706035      10.00425846        2      -0.00037526      -0.00026830      -0.00024299
Ti      -4.54764399       9.62512440       8.70079436        0       0.00009244      -0.00109377       0.00110085
Ti      -3.03427040       8.75005324      11.32276342        0       0.00066648       0.00208810      -0.00177697
O       -4.55089827       9.62750430      12.23159545        3       0.00082399      -0.00174905      -0.00162960
O       -3.03343465       8.74713832       7.77557986        1      -0.00063262       0.00293523       0.00034121
C        3.02729464       0.00352738      10.00256014        2      -0.00012311      -0.00128218       0.00195221
Ti       3.02657287       1.75424941       8.70485638        0      -0.00057394      -0.00082601       0.00151368
Ti       4.54435861       0.87982973      11.32175349        0       0.00077779      -0.00212625      -0.00041199
O        3.02538771       1.75165490      12.23159545        3       0.00024559      -0.00137804       0.00956704
O        4.54269301       0.88061335       7.77620366        1      -0.00125147      -0.00174756       0.00026916
C        1.51405458       2.62799899      10.00254326        2       0.00140779      -0.00226335      -0.00037981
Ti       1.51261580       4.37608751       8.70676757        0       0.00129515      -0.00072365      -0.00060011
Ti       3.02623450       3.50324160      11.32478876        0      -0.00005361      -0.00342363      -0.00033854
O        1.51191035       4.37557161      12.23159545        3       0.00121789      -0.00093126       0.01524459
O        3.02799591       3.50402842       7.78009434        1       0.00087449      -0.00149258      -0.00069417
C       -0.00203549       5.25327198      10.00653157        2      -0.00042071      -0.00022689      -0.00248570
Ti      -0.00228231       7.00080291       8.70357400        0      -0.00096502       0.00031600       0.00066178
Ti       1.51073713       6.12646444      11.32272771        0      -0.00153315      -0.00091029      -0.00014136
O       -0.00200332       7.00206605      12.23159545        3      -0.00053940       0.00012616       0.00974108
O        1.51233495       6.12541926       7.77999666        1       0.00016146      -0.00029964      -0.00000900
C       -1.51817765       7.87986770      10.00224144        2       0.00031561       0.00068903      -0.00116531
Ti      -1.51849110       9.62533938       8.69828917        0      -0.00147009      -0.00214023       0.00190053
Ti       0.00054680       8.75098138      11.31805195        0      -0.00022640       0.00217465      -0.00036666
O       -1.51795357       9.62502709      12.23159545        3      -0.00042115      -0.00108223      -0.01149067
O       -0.00362118       8.74833133       7.77423355        1       0.00097037       0.00011486       0.00001956
C        6.05092553      -0.00073247       9.99888755        2       0.00048655      -0.00070130      -0.00023085
Ti       6.05484724       1.75271055       8.70504292        0      -0.00089090      -0.00250661       0.00269816
Ti       7.57142988       0.87656879      11.30112271        0      -0.00019095      -0.00372525      -0.00042516
O        6.05810369       1.74787010      12.23159545        3       0.00143561       0.00249369       0.02267227
O        7.57256841       0.88020746       7.77827757        1      -0.00135110      -0.00248593       0.00175091
C        4.54142062       2.62657598      10.00547795        2      -0.00005212      -0.00159929      -0.00008106
Ti       4.54243519       4.37714398       8.70551213        0      -0.00018693      -0.00180931       0.00048549
Ti       6.06064779       3.49791224      11.32069676        0      -0.00314864      -0.00093206      -0.00253058
O        4.54298642       4.37591750      12.23159545        3       0.00026360      -0.00282691       0.00740765
O        6.05853255       3.50283027       7.78153012        1      -0.00327610      -0.00308014       0.00080114
C        3.02899777       5.25183669      10.00573486        2      -0.00082251      -0.00163383       0.00043650
Ti       3.02847697       6.99963141       8.70315762        0      -0.00052639      -0.00004975       0.00273803
Ti       4.54297513       6.12520904      11.32114911        0       0.00117112      -0.00130859       0.00033834
O        3.02759989       7.00303838      12.23159545        3      -0.00019924      -0.00079018      -0.00423732
O        4.54382696       6.12497517       7.77911231        1      -0.00137933      -0.00042783       0.00122874
C        1.51340364       7.87645135      10.00285097        2      -0.00066806      -0.00028674       0.00066963
Ti       1.51108788       9.62232441       8.69961324        0      -0.00139629      -0.00073370       0.00102985
Ti       3.02768719       8.75397958      11.31871010        0       0.00023871       0.00165575       0.00099029
O        1.51304344       9.62529445      12.23159545        3      -0.00089511      -0.00077944       0.00192564
O        3.02717783       8.74844852       7.77544240        1      -0.00013178      -0.00115758       0.00122043
C        9.08642388      -0.00096720       9.99889874        2       0.00053650       0.00147049       0.00074064
Ti       9.08622424       1.75046166       8.69593382        0       0.00045100      -0.00078841       0.00016316
Ti      10.60884776       0.87647403      11.29021600        0       0.00285871      -0.00086481      -0.00348724
O        9.09084929       1.73409125      12.23159545        3       0.00527504       0.00606588       0.08929126
O       10.60117808       0.88126276       7.77607884        1       0.00219778      -0.00196287       0.00113291
C        7.57348949       2.62675271      10.01195854        2       0.00040029       0.00134117       0.00030001
Ti       7.56968032       4.37879910       8.70680055        0      -0.00006018      -0.00155065      -0.00064367
Ti       9.09728004       3.50343602      11.33606250        0       0.00626399       0.00283944      -0.00302475
O        7.57102078       4.37637651      12.23159545        3       0.00392747      -0.00148994       0.00106810
O        9.08771394       3.50233989       7.78862593        1       0.00004826      -0.00136438       0.00101314
C        6.05848172       5.25084305      10.00757390        2       0.00034961      -0.00116823       0.00105512
Ti       6.05760436       7.00137325       8.70568930        0      -0.00080126      -0.00051247      -0.00040213
Ti       7.57408028       6.12366318      11.32450871        0      -0.00166906       0.00410743      -0.00302569
O        6.05818618       7.00300294      12.23159545        3       0.00182943      -0.00106577       0.01404641
O        7.57325841       6.12440725       7.78156142        1      -0.00089750       0.00313854      -0.00081931
C        4.54318028       7.87481219      10.00264053        2       0.00011714       0.00064661       0.00032960
Ti       4.54298689       9.62373122       8.69869309        0      -0.00007508      -0.00144200      -0.00031413
Ti       6.05312168       8.75100325      11.32232094        0      -0.00002847      -0.00099005       0.00025527
O        4.54676451       9.62747776      12.23159545        3       0.00138167       0.00153587       0.01342824
O        6.05813299       8.74835109       7.77589750        1      -0.00056193      -0.00151834      -0.00103991
C        0.06675964       0.06684283      16.28461162       10      -0.00368327      -0.00294175      -0.04026153
C        1.27139140       0.77079316      16.29299985       10       0.00370521       0.00261696       0.03061951
C       -1.12673691       2.15410546      16.26024095       10      -0.00133630       0.00331320       0.33373113
C        0.06096739       2.86835964      16.26787969       10       0.00046908       0.00124113       0.07301869
C       -2.36498840       4.30947717      16.26023540       10      -0.00012395      -0.00284417       0.70529063
C       -1.15389593       4.97818611      16.26787713       10      -0.00068069       0.00049436       0.02628200
C       -3.57881808       6.38295891      16.28461107       10      -0.00036647       0.00230687       0.00624735
C       -2.36716573       7.07537597      16.29299965       10       0.00179318       0.00250301      -0.00881468
C       -4.78995186       8.47209437      16.28271868       10      -0.00387775      -0.00052887      -0.02120938
C       -3.57902655       9.17087021      16.29400834       10       0.00584934       0.00579401       0.00987414
C        2.48287029       0.07122872      16.29503336       10       0.00196283       0.00280636      -0.00813757
C        3.69186540       0.77166133      16.29400825       10      -0.00011495       0.00103921       0.01013753
C        1.27606606       2.16591387      16.28461183       10       0.00145002       0.00045038      -0.02607632
C        2.48197808       2.87064116      16.27555170       10       0.00324963      -0.00100209       0.01966865
C        0.06167098       4.27289425      16.24175181       10      -0.00311243       0.00075351       0.01540353
C        1.26871063       4.97037109      16.25342176       10      -0.00205585       0.00149780      -0.02873374
C       -1.15420716       6.38219583      16.28461107       10       0.00063213       0.00193658       0.03319584
C        0.05776819       7.07317449      16.27555180       10       0.00066314       0.00240813      -0.03233493
C       -2.36745775       8.47419834      16.29503357       10       0.00150370       0.00164839       0.02183060
C       -1.15653860       9.17040107      16.29400834       10      -0.00120986       0.00162325      -0.00925862
C        4.90102110       0.07042551      16.29503336       10      -0.00293523       0.00098379       0.02413883
C        6.11326566       0.77118640      16.29299985       10      -0.00405424       0.00041136       0.00614749
C        3.69116620       2.16997197      16.28271855       10       0.00067471      -0.00206478      -0.00636775
C        4.90197721       2.87140239      16.27555170       10      -0.00299958      -0.00008678       0.02562814
C        2.48064138       4.26974718      16.26166820       10       0.00087310       0.00123116       0.01432031
C        3.69305974       4.97137449      16.25888034       10       0.00170141       0.00348810      -0.01138479
C        1.26779744       6.37175083      16.26166810       10       0.00173265       0.00392160       0.05559319
C        2.48126394       7.07059333      16.25888023       10       0.00335620       0.00115607      -0.02007077
C        0.05559756       8.47020074      16.28271868       10      -0.00134643       0.00145350       0.04553537
C        1.26745018       9.16687200      16.27555155       10      -0.00019506      -0.00220450       0.00016707
C        7.31883492       0.06548712      16.28461162       10      -0.00213885      -0.00151617       0.00934756
C        8.53440114       0.76777927      16.26787950       10      -0.00191548      -0.00162349       0.06859799
C        6.10754957       2.16621930      16.28461183       10      -0.00491686       0.00056862      -0.00762320
C        7.32436081       2.86923977      16.26787969       10      -0.00417479      -0.00046149       0.05352413
C        4.90393999       4.27031856      16.26166820       10       0.00010349       0.00092941      -0.00216240
C        6.11750860       4.97160881      16.25342176       10      -0.00016277       0.00081439      -0.00799967
C        3.69232525       6.37146381      16.25580234       10       0.00132389       0.00272295       0.00572738
C        4.90497487       7.07110965      16.25888023       10      -0.00226641       0.00149250      -0.00277896
C        2.47942991       8.47024922      16.26166793       10       0.00095232      -0.00186980       0.03534223
C        3.69339099       9.16975721      16.25342135       10      -0.00059752      -0.00219181      -0.00287358
C        9.75437675       0.06717730      16.24175176       10      -0.00265345      -0.00402765      -0.06095880
C       10.97160120       0.76867058      16.26787950       10       0.00526948       0.00391781       0.06227152
C        8.51039416       2.15299954      16.26024095       10      -0.00477256      -0.00134368       0.34100568
C        9.75009197       2.86868486      16.01588169       10      -0.00286470      -0.00058264      -1.79051895
C        7.32598930       4.27527521      16.24175181       10      -0.00010444       0.00125046      -0.02997829
C        8.54157415       4.97934835      16.26787713       10       0.00361546       0.00045226       0.05723033
C        6.11781806       6.37343250      16.26166810       10      -0.00562671       0.00057857      -0.00335285
C        7.32830416       7.07415710      16.27555180       10      -0.00357323      -0.00181036       0.00535121
C        4.90680886       8.47134572      16.26166793       10      -0.00428412      -0.00438499      -0.00240570
C        6.11839912       9.16813476      16.27555155       10       0.00315984      -0.00003620       0.03829987
O        9.77170530       2.98773814      14.49328364       11      -0.00367910       0.00253919      -0.00727320
H        9.51042374       2.16286030      14.02997102       12       0.00500481       0.00442361       0.00484805
