131
Lattice="12.12 0.0 0.0 -6.06 10.496227893867395 0.0 0.0 0.0 40.0" Properties=species:S:1:pos:R:3:tags:I:1:forces:R:3 energy=-1203.3144990982678 stress="0.002626222204567783 5.771510263907957e-07 -1.638159646605574e-06 5.771510263907957e-07 0.002625380996112946 -4.298644736571692e-06 -1.638159646605574e-06 -4.298644736571692e-06 0.0030072323418357484" pbc="T T F"
C        0.24115307      -0.08638458       9.98025824        2      -0.00263680       0.00106758      -0.00301109
Ti       0.25683718       1.65040985       8.70032865        0       0.00241748      -0.00079749      -0.00101219
Ti       1.76953137       0.78968934      11.28787624        0       0.00340809       0.00232845       0.00427227
O        0.23441422       1.67673354      12.23008024        3      -0.00095631      -0.00319847      -0.35340394
O        1.78532156       0.76541786       7.78407461        1      -0.00093389      -0.00145285      -0.00062283
C       -1.26000072       2.52660407       9.98786233        2       0.00076057      -0.00212852      -0.00143410
Ti      -1.26049032       4.27827464       8.69925065        0      -0.00072450       0.00321282      -0.00018141
Ti       0.25716192       3.40274423      11.28995250        0       0.00045401      -0.00233096       0.00144980
O       -1.24875825       4.24437020      12.23008024        3       0.00008104       0.00332210      -0.35951217
O        0.25668136       3.40209620       7.75776905        1      -0.00084651      -0.00246782      -0.00509889
C       -2.77234936       5.13242209       9.97864754        2      -0.00074130      -0.00234434       0.00119093
Ti      -2.77216691       6.90531525       8.75181496        0      -0.00085380      -0.00358990      -0.00151726
Ti      -1.24845704       6.01764797      11.28724253        0      -0.00079616      -0.00095551       0.00034760
O       -2.77141441       6.64136133      12.23008024        3      -0.00242341       0.00203055      -0.45534719
O       -1.26279461       6.04448649       7.78313999        1       0.00132354       0.00174343       0.00333350
C       -4.27651519       7.78215806      10.06866338        2       0.00108792      -0.00352282      -0.00116290
Ti      -4.28373592       9.52396985       8.75207255        0      -0.00244286       0.00042732      -0.00037516
Ti      -2.77353495       8.64889589      11.48702153        0       0.00222300      -0.00120470       0.00260702
O       -4.50478788       9.65236567      12.23008024        3       0.00185469      -0.00266086      -0.43415800
O       -2.77251917       8.65096686       7.81331007        1       0.00000895      -0.00041328       0.00074919
C        3.28710617      -0.10812114      10.06774006        2       0.00268090      -0.00168033      -0.00113516
Ti       3.28762045       1.65863859       8.71232652        0       0.00155386       0.00260532       0.00208660
Ti       4.80501484       0.78858230      11.28846562        0      -0.00503910       0.00574999       0.00216276
O        3.28717701       1.67679345      12.23008024        3       0.00131460      -0.00292918      -0.27807439
O        4.79002023       0.76513275       7.78385870        1      -0.00051783       0.00164005       0.00410015
C        1.76994371       2.53881152       9.99076258        2      -0.00226830       0.00171742      -0.00657932
Ti       1.76942184       4.27580448       8.69763241        0       0.00104031       0.00099553      -0.00190329
Ti       3.28710691       3.40985521      11.27717974        0       0.00398293      -0.00511077       0.00247690
O        1.77691165       4.28030364      12.23008024        3       0.00080575       0.00072523      -0.36589492
O        3.28753523       3.39309998       7.76284073        1       0.00221219      -0.00554929       0.00018866
C        0.26552620       5.14418872       9.98993578        2       0.00233943      -0.00050333       0.00064551
Ti       0.26187361       6.89915047       8.71197779        0       0.00112056      -0.00204757       0.00065138
Ti       1.77881034       6.02367455      11.27666151        0      -0.00441900       0.00166141       0.00219486
O        0.27720404       6.88955121      12.23008024        3      -0.00007478      -0.00128516      -0.28259512
O        1.76407199       6.03219273       7.76246080        1      -0.00214096       0.00114186       0.00176337
C       -1.26807925       7.78151418      10.06769185        2      -0.00285106       0.00018701       0.00258237
Ti      -1.26089730       9.52382690       8.75194978        0       0.00200584       0.00113160      -0.00126172
Ti       0.26774406       8.64736173      11.28808839        0      -0.00039220      -0.00085249       0.00020206
O       -1.04477762       9.64834289      12.23008024        3      -0.00444335       0.00154738      -0.42247189
O        0.23963475       8.64719852       7.78367608        1      -0.00137306      -0.00314275       0.00396842
C        6.33344105      -0.08671939       9.98084198        2       0.00088461       0.00037890      -0.00189166
Ti       6.31831965       1.65066255       8.70046646        0      -0.00453726      -0.00211171      -0.00086055
Ti       7.83784785       0.78205362      11.28039853        0      -0.00157336       0.00174868       0.00005044
O        6.33980111       1.67532416      12.23008024        3       0.00067283       0.00198541      -0.35107856
O        7.83301939       0.77879198       7.75356470        1       0.00202994       0.00378061      -0.00210105
C        4.80526613       2.53869610       9.99109966        2      -0.00167424      -0.00244641      -0.00385208
Ti       4.80579622       4.27588140       8.69894323        0      -0.00068578      -0.00129483      -0.00688599
Ti       6.31743559       3.40257581      11.29126177        0       0.00251176      -0.00313731      -0.00099669
O        4.79770064       4.28034660      12.23008024        3       0.00106560      -0.00079829      -0.36139175
O        6.31872181       3.40196527       7.75807677        1      -0.00112894      -0.00084953      -0.00213113
C        3.28757329       5.15248199       9.98853697        2      -0.00132785       0.00013664       0.00100170
Ti       3.28756205       6.90553316       8.69836001        0       0.00017425      -0.00278871      -0.00168791
Ti       4.79666330       6.02434924      11.27741714        0       0.00581076      -0.00165277       0.00219665
O        3.28740139       6.89684748      12.23008024        3      -0.00084163      -0.00211089      -0.36267416
O        4.81100756       6.03211591       7.76315916        1       0.00497327       0.00122167      -0.00034320
C        1.78269194       7.77368645       9.99083267        2       0.00155468      -0.00185974       0.00028648
Ti       1.77028526       9.52767137       8.70030501        0      -0.00418025      -0.00114248       0.00087223
Ti       3.28708832       8.65227539      11.29096926        0       0.00260658      -0.00089898       0.00169028
O        1.80310059       9.53461673      12.23008024        3      -0.00223291      -0.00328649      -0.35171926
O        3.28754257       8.65244939       7.75838984        1       0.00069895       0.00114798      -0.00426738
C        9.34735186      -0.09288326       9.98852503        2       0.00071306      -0.00097617      -0.00118805
Ti       9.34768322       1.65319064       8.69350283        0      -0.00194687       0.00075132       0.00236564
Ti      10.85690242       0.78246886      11.28154620        0       0.00079672      -0.00129585      -0.00503533
O        9.34751821       1.65334955      12.23008024        3      -0.00072713       0.00009847      -0.33861202
O       10.86189895       0.77901794       7.75334518        1      -0.00211071       0.00092268      -0.00156368
C        7.83476041       2.52656342       9.98841211        2       0.00171692      -0.00253808      -0.00535134
Ti       7.83567201       4.27824980       8.69988165        0      -0.00100123       0.00311127      -0.00172968
Ti       9.34769418       3.39628044      11.27992380        0      -0.00157478      -0.00215915       0.00032929
O        7.82413153       4.24487339      12.23008024        3      -0.00133736      -0.00215939      -0.35627853
O        9.34763814       3.40173379       7.75273766        1      -0.00234260      -0.00494658      -0.00194362
C        6.30965976       5.14399071       9.99082820        2      -0.00027815       0.00184757      -0.00376466
Ti       6.31332402       6.89902084       8.71225549        0      -0.00164014      -0.00259211       0.00372880
Ti       7.82469941       6.01766662      11.28741757        0      -0.00924128       0.00020517       0.00139970
O        6.29782546       6.88989443      12.23008024        3       0.00331250      -0.00087033      -0.28349758
O        7.83781904       6.04482441       7.78366088        1      -0.00188523      -0.00124666       0.00319113
C        4.79225750       7.77366459       9.99133736        2      -0.00385525       0.00038194      -0.00626278
Ti       4.80505244       9.52785115       8.70061607        0       0.00140016      -0.00248864       0.00029944
Ti       6.30658912       8.64805195      11.28747164        0      -0.00089914      -0.00442908       0.00525025
O        4.77096392       9.53463964      12.23008024        3       0.00090154       0.00121134      -0.35194306
O        6.33563868       8.64659736       7.78440061        1      -0.00006963       0.00025110      -0.00100579
C       -0.36253849       0.22009199      15.25770529       10       0.00149319      -0.00233225       0.13693961
C        0.84788187       0.92007581      15.24241324       10       0.00032993       0.00181294       0.11223350
C       -1.57256381       2.31849636      15.26302599       10      -0.00085935      -0.00236134       0.11020015
C       -0.36057321       3.01829188      15.24531556       10       0.00085217       0.00012995       0.07987606
C       -2.78448228       4.41568626      15.25770529       10      -0.00173692       0.00333686       0.13390346
C       -1.57320483       5.11417314      15.24241324       10       0.00076512       0.00154002       0.11643820
C       -3.99062850       6.52087370      15.19459454       10      -0.00313052       0.00269923       0.11120181
C       -2.78431704       7.20247509      15.15277232       10      -0.00308656       0.00112109      -0.35187272
C       -5.20298295       8.61909522      15.19459454       10       0.00301517       0.00062941       0.11154048
C       -4.01028774       9.32377452      15.15277232       10       0.00218605      -0.00143769      -0.29347281
C        2.06355079       0.21274768      15.19459454       10       0.00044574      -0.00134115       0.12103607
C        3.27552692       0.91873621      15.16251586       10       0.00023760       0.00150315       0.37821719
C        0.85127558       2.31719695      15.23137027       10       0.00314927      -0.00108917       0.11392958
C        2.06338699       3.01692750      15.20945586       10      -0.00069250       0.00285994       0.07037694
C       -0.36159398       4.41841943      15.23137027       10      -0.00213468       0.00076722       0.10944660
C        0.85084910       5.11752392      15.20945586       10      -0.00297240       0.00087448       0.07243699
C       -1.57802888       6.52083042      15.19459454       10      -0.00287396       0.00300659       0.11405715
C       -0.36024207       7.21652855      15.16251586       10       0.00045598       0.00139914       0.38182000
C       -2.78423071       8.61780570      14.69996666       10       0.00181801       0.00032937       1.11039113
C       -1.55855586       9.32389497      15.15277232       10       0.00183207       0.00100317      -0.27290102
C        4.48757014       0.21275925      15.19459454       10      -0.00341296       0.00231054       0.12098465
C        5.70318138       0.92009143      15.24241324       10      -0.00141058       0.00016234       0.11044404
C        3.27539491       2.31413214      15.19484957       10       0.00142824       0.00311071       0.06783966
C        4.48741252       3.01691797      15.20945586       10       0.00156566       0.00296798       0.07032703
C        2.06282833       4.41687297      15.20677425       10       0.00040191       0.00174001       0.15985914
C        3.27546544       5.11693790      15.20177348       10      -0.00041201       0.00149127       0.07351639
C        0.84812025       6.51856358      15.19484957       10       0.00182315       0.00122740       0.06254378
C        2.06273926       7.21675732      15.20945586       10       0.00216048       0.00173351       0.07238669
C       -0.36605080       8.61911031      15.19459454       10       0.00006685      -0.00110531       0.11459052
C        0.85439079       9.31812295      15.24241324       10       0.00044462      -0.00000348       0.11056486
C        6.91354573       0.22006908      15.25770529       10      -0.00174994       0.00085450       0.13851738
C        8.12497150       0.91957701      15.26464381       10      -0.00352124      -0.00009055       0.06833446
C        5.69950067       2.31713017      15.23137027       10       0.00073465       0.00503052       0.11352149
C        6.91135339       3.01824409      15.24531556       10       0.00190164       0.00013030       0.07913498
C        4.48813065       4.41690061      15.20677425       10       0.00052720       0.00182447       0.15994500
C        5.70018954       5.11754036      15.20945586       10       0.00118959       0.00208521       0.07328380
C        3.27546757       6.51726274      15.20677425       10       0.00097578      -0.00124451       0.15962982
C        4.48818027       7.21675339      15.20945586       10       0.00009667       0.00107659       0.07332315
C        2.06234675       8.61637784      15.23137027       10       0.00517135      -0.00003852       0.10901133
C        3.27533381       9.31546913      15.24531556       10       0.00213107       0.00329894       0.07727174
C        9.33550486       0.21880838      15.26302599       10      -0.00078784       0.00114567       0.11299402
C       10.54603904       0.91962214      15.26464381       10       0.00081302       0.00091677       0.06816741
C        8.12332883       2.31839472      15.26302599       10       0.00124371       0.00185494       0.11106568
C        9.33533692       3.01664894      15.26464381       10       0.00392283       0.00163425       0.06942912
C        6.91262291       4.41843194      15.23137027       10       0.00146635       0.00029676       0.10698739
C        8.12428378       5.11416005      15.24241324       10      -0.00039725       0.00278035       0.11670919
C        5.70297980       6.51863775      15.19484957       10      -0.00259878      -0.00016602       0.05993723
C        6.91146517       7.21652835      15.16251586       10      -0.00497446       0.00008348       0.38392459
C        4.48834812       8.61635567      15.23137027       10       0.00226787       0.00138905       0.10708538
C        5.69639422       9.31808585      15.24241324       10       0.00321957      -0.00016242       0.11264020
O       -2.78050741       8.63311174      13.34146545       11       0.00608654      -0.00295298      -0.00259342
