130
Lattice="12.12 0.0 0.0 -6.06 10.496227893867395 0.0 0.0 0.0 40.0" Properties=species:S:1:pos:R:3:tags:I:1:forces:R:3 energy=-1201.5123170607449 stress="0.0028865064985379688 2.217866582386242e-07 -1.4553404055355697e-07 2.217866582386242e-07 0.002886197627918787 -5.16029882264352e-07 -1.4553404055355697e-07 -5.16029882264352e-07 0.0022689374356025614" pbc="T T F"
C        0.00002035       0.00005055      10.00326035        2      -0.00001539      -0.00011399       0.00365567
Ti      -0.00001430       1.74945387       8.71222168        0       0.00001358      -0.00003046       0.00409095
Ti       1.51497799       0.87473006      11.29359233        0       0.00029091       0.00012962       0.00173938
O       -0.00026769       1.75086651      12.23008024        3       0.00011643      -0.00029735       0.10555540
O        1.51490325       0.87463168       7.77285476        1      -0.00003505      -0.00004751       0.00417277
C       -1.51507492       2.62398675      10.00271879        2      -0.00002131      -0.00013037       0.00351396
Ti      -1.51503647       4.37346792       8.71220118        0       0.00001598      -0.00009468       0.00368644
Ti      -0.00005372       3.49895227      11.29397316        0       0.00019633       0.00011529       0.00179926
O       -1.51509805       4.37322696      12.23008024        3      -0.00004235      -0.00006767       0.09822190
O        0.00001019       3.49861572       7.77283025        1      -0.00004087      -0.00013715       0.00401381
C       -3.02998787       5.24808677      10.00255834        2      -0.00009000      -0.00002893       0.00323606
Ti      -3.02998203       6.99743824       8.71221271        0      -0.00004353      -0.00000566       0.00373152
Ti      -1.51514323       6.12268826      11.29364162        0       0.00005316      -0.00022376       0.00155080
O       -3.03007838       6.99730155      12.23008024        3      -0.00009694      -0.00004191       0.09645975
O       -1.51504414       6.12278232       7.77271460        1      -0.00003851      -0.00007728       0.00376784
C       -4.54505561       7.87216649      10.00273486        2      -0.00001168      -0.00002915       0.00354451
Ti      -4.54493051       9.62149164       8.71227245        0      -0.00004381       0.00001278       0.00413871
Ti      -3.02987097       8.74669169      11.29404606        0       0.00015128      -0.00010524       0.00144801
O       -4.54417879       9.62074036      12.23008024        3      -0.00000661      -0.00015107       0.10251710
O       -3.03010301       8.74692202       7.77285409        1      -0.00010835       0.00003486       0.00398846
C        3.02992239       0.00006127      10.00283897        2       0.00000425      -0.00015672       0.00353619
Ti       3.03005129       1.74939365       8.71222759        0       0.00001728       0.00003131       0.00380236
Ti       4.54513585       0.87480129      11.29370373        0       0.00008235       0.00009080       0.00173660
O        3.03047550       1.74944070      12.23008024        3       0.00005593      -0.00009446       0.09555631
O        4.54492175       0.87466597       7.77279368        1      -0.00009679      -0.00006431       0.00388902
C        1.51504946       2.62395737      10.00282332        2      -0.00003291      -0.00014085       0.00335322
Ti       1.51501028       4.37347495       8.71224793        0       0.00001736      -0.00009787       0.00359919
Ti       3.03020173       3.49873593      11.29367895        0       0.00009854       0.00014626       0.00187947
O        1.51507396       4.37327191      12.23008024        3      -0.00001963      -0.00010129       0.09643322
O        3.02995187       3.49867389       7.77278391        1      -0.00004986      -0.00011507       0.00390005
C       -0.00001579       5.24815873      10.00253216        2      -0.00012757      -0.00009873       0.00318059
Ti      -0.00001187       6.99747625       8.71206749        0       0.00000532      -0.00009040       0.00351910
Ti       1.51495841       6.12275614      11.29361566        0      -0.00003412      -0.00026752       0.00176527
O       -0.00032450       6.99706930      12.23008024        3      -0.00019977      -0.00008210       0.09906163
O        1.51502738       6.12276745       7.77272180        1      -0.00002118      -0.00005968       0.00386168
C       -1.51495979       7.87211361      10.00258228        2      -0.00012430      -0.00007077       0.00329754
Ti      -1.51496231       9.62151414       8.71225112        0      -0.00000978       0.00001577       0.00379124
Ti      -0.00003842       8.74674300      11.29358234        0      -0.00001150      -0.00028170       0.00160070
O       -1.51499936       9.62159163      12.23008024        3      -0.00005880      -0.00014753       0.09507847
O       -0.00002228       8.74689881       7.77271872        1      -0.00001297      -0.00004369       0.00385751
C        6.05997632      -0.00011969      10.00261146        2      -0.00000772      -0.00007485       0.00327654
Ti       6.06000551       1.74937948       8.71207924        0      -0.00004132      -0.00001202       0.00360999
Ti       7.57486177       0.87477288      11.29368135        0      -0.00019312      -0.00013464       0.00160124
O        6.06011363       1.74948872      12.23008024        3       0.00003387      -0.00008398       0.08957242
O        7.57503728       0.87466407       7.77276056        1       0.00007295      -0.00010235       0.00386316
C        4.54504450       2.62407240      10.00263058        2       0.00004855      -0.00010283       0.00308523
Ti       4.54501501       4.37343456       8.71207770        0      -0.00003452      -0.00004621       0.00347287
Ti       6.06006376       3.49879547      11.29313286        0      -0.00015829      -0.00003716       0.00165477
O        4.54503603       4.37354314      12.23008024        3       0.00018090      -0.00006768       0.09386739
O        6.05997898       3.49872157       7.77265905        1      -0.00003905      -0.00007143       0.00365277
C        3.02991548       5.24809987      10.00260686        2       0.00001032      -0.00001350       0.00305918
Ti       3.02996376       6.99744427       8.71221372        0      -0.00002783      -0.00005285       0.00369502
Ti       4.54506206       6.12262211      11.29363939        0      -0.00021670      -0.00031171       0.00168905
O        3.02991519       6.99729115      12.23008024        3      -0.00004903      -0.00006533       0.09214379
O        4.54500896       6.12284360       7.77275602        1      -0.00001035       0.00005018       0.00384006
C        1.51491049       7.87210264      10.00261549        2      -0.00005726      -0.00004310       0.00323260
Ti       1.51494908       9.62151694       8.71220762        0      -0.00002278      -0.00005147       0.00383351
Ti       3.02982216       8.74671465      11.29401691        0      -0.00020631      -0.00035555       0.00174454
O        1.51491179       9.62147949      12.23008024        3      -0.00007407      -0.00012273       0.09292414
O        3.03008521       8.74690108       7.77283331        1       0.00002127       0.00001729       0.00405637
C        9.09002910      -0.00000637      10.00275026        2       0.00000514      -0.00006655       0.00357088
Ti       9.08994272       1.74939118       8.71218558        0      -0.00005020      -0.00006310       0.00384916
Ti      10.60494876       0.87473230      11.29363244        0      -0.00003236       0.00002995       0.00174255
O        9.08954547       1.74921446      12.23008024        3      -0.00000550      -0.00006865       0.09654840
O       10.60511991       0.87461959       7.77284724        1       0.00002358      -0.00006285       0.00414088
C        7.57497528       2.62404411      10.00258670        2       0.00007264      -0.00008941       0.00315892
Ti       7.57498434       4.37343017       8.71203813        0      -0.00004912      -0.00004908       0.00351019
Ti       9.08977482       3.49868346      11.29361234        0      -0.00002212       0.00002363       0.00156268
O        7.57527542       4.37362591      12.23008024        3       0.00003411      -0.00002285       0.09927449
O        9.09001927       3.49868672       7.77273342        1       0.00003989      -0.00016359       0.00376506
C        6.05998392       5.24810977      10.00257181        2       0.00008242       0.00002636       0.00308640
Ti       6.05999365       6.99743144       8.71218727        0      -0.00009208      -0.00002989       0.00379775
Ti       7.57485954       6.12262569      11.29359250        0      -0.00010780      -0.00021968       0.00151093
O        6.05979122       6.99718527      12.23008024        3      -0.00000265      -0.00003379       0.09563421
O        7.57496992       6.12284970       7.77274317        1      -0.00008360       0.00006252       0.00371707
C        4.54500187       7.87218358      10.00273811        2       0.00001585       0.00002098       0.00345199
Ti       4.54491372       9.62149021       8.71227766        0      -0.00005246      -0.00004557       0.00418637
Ti       6.05999378       8.74677467      11.29367435        0      -0.00005929      -0.00025319       0.00162293
O        4.54432450       9.62104949      12.23008024        3       0.00003418      -0.00005795       0.09693549
O        6.06000576       8.74700415       7.77287658        1      -0.00002006       0.00006740       0.00411055
C        0.04515955       0.06761753      16.87744866       10      -0.00137670       0.00032260      -0.04143684
C        1.25724408       0.76739696      16.87744866       10      -0.00663832      -0.00197653      -0.03546392
C       -1.16710096       2.16683430      16.87744866       10       0.00179670       0.00260160      -0.03461903
C        0.04486910       2.86662725      16.87744866       10       0.00168981      -0.00176666      -0.03385631
C       -2.37897463       4.26608355      16.87744866       10      -0.00142206       0.00107022      -0.04130435
C       -1.16695558       4.96582955      16.87744866       10       0.00041938      -0.00053552      -0.04354687
C       -3.59075588       6.36522896      16.87744866       10      -0.00382738       0.00293517      -0.03823472
C       -2.37876040       7.06495546      16.87744866       10      -0.00110319      -0.00209765      -0.04287661
C       -4.80303973       8.46460220      16.87744866       10       0.00326026       0.00141733      -0.03520972
C       -3.59097433       9.16429228      16.87744866       10       0.00012370      -0.00011769      -0.03465248
C        2.46919365       0.06759353      16.87744866       10      -0.00030381      -0.00038529      -0.03213099
C        3.68130487       0.76737453      16.87744866       10      -0.00526758       0.00001761      -0.03257267
C        1.25684752       2.16683477      16.87744866       10       0.00424647       0.00155622      -0.03410511
C        2.46899145       2.86657457      16.87744866       10      -0.00136393       0.00042188      -0.03145126
C        0.04505264       4.26607883      16.87744866       10      -0.00123576       0.00000564      -0.02957910
C        1.25711605       4.96577418      16.87744866       10      -0.00242852       0.00266609      -0.04405111
C       -1.16672976       6.36524778      16.87744866       10      -0.00290462       0.00188814      -0.02666952
C        0.04521634       7.06493960      16.87744866       10      -0.00116359       0.00103645      -0.03989994
C       -2.37902873       8.46444876      16.87744866       10       0.00247817       0.00132085      -0.02836046
C       -1.16700348       9.16415708      16.87744866       10       0.00170257       0.00311593      -0.04504830
C        4.89317352       0.06752936      16.87744866       10      -0.00240815      -0.00118530      -0.03595620
C        6.10507796       0.76749571      16.87744866       10       0.00014698      -0.00112457      -0.02795821
C        3.68099664       2.16689109      16.87744866       10       0.00341784       0.00028104      -0.03750154
C        4.89291159       2.86672972      16.87744866       10       0.00359187       0.00034914      -0.02534512
C        2.46905101       4.26605749      16.87744866       10       0.00098133      -0.00265855      -0.03897728
C        3.68112313       4.96577862      16.87744866       10      -0.00099700       0.00286341      -0.02698844
C        1.25718661       6.36523026      16.87744866       10      -0.00350561      -0.00011313      -0.02805318
C        2.46912226       7.06499908      16.87744866       10      -0.00335481      -0.00005650      -0.04402444
C        0.04492214       8.46438624      16.87744866       10      -0.00006866       0.00129274      -0.02806157
C        1.25675430       9.16430218      16.87744866       10       0.00249017       0.00135424      -0.04401089
C        7.31705242       0.06766885      16.87744866       10      -0.00165667      -0.00295631      -0.03363771
C        8.52903667       0.76742671      16.87744866       10      -0.00244434      -0.00100961      -0.03287553
C        6.10487809       2.16699205      16.87744866       10       0.00121854      -0.00093684      -0.04561416
C        7.31683968       2.86672387      16.87744866       10       0.00297097      -0.00162726      -0.02743717
C        4.89306596       4.26618587      16.87744866       10       0.00242022      -0.00249690      -0.04248029
C        6.10505462       4.96591067      16.87744866       10       0.00129508       0.00016184      -0.02870497
C        3.68113411       6.36529499      16.87744866       10       0.00138530      -0.00013728      -0.03379078
C        4.89317662       7.06505605      16.87744866       10      -0.00417007      -0.00139520      -0.03169151
C        2.46871158       8.46452209      16.87744866       10       0.00538130       0.00029823      -0.02682356
C        3.68072531       9.16427564      16.87744866       10       0.00040387       0.00065826      -0.03519475
C        9.74106233       0.06757987      16.87744866       10      -0.00013156       0.00037897      -0.03182097
C       10.95313809       0.76738505      16.87744866       10      -0.00324708      -0.00112811      -0.03400237
C        8.52882155       2.16690873      16.87744866       10       0.00113328       0.00232050      -0.04230131
C        9.74080298       2.86664395      16.87744866       10       0.00391116      -0.00262130      -0.03108597
C        7.31693179       4.26611306      16.87744866       10      -0.00033711       0.00071551      -0.04030220
C        8.52893746       4.96576588      16.87744866       10       0.00152651      -0.00080843      -0.02530357
C        6.10522031       6.36535934      16.87744866       10      -0.00165524       0.00195539      -0.04701497
C        7.31723285       7.06507646      16.87744866       10      -0.00177361      -0.00242732      -0.03035312
C        4.89273555       8.46457449      16.87744866       10       0.00669666       0.00223162      -0.03411670
C        6.10488347       9.16432351      16.87744866       10       0.00141203      -0.00007933      -0.03208543
