130
Lattice="12.12 0.0 0.0 -6.06 10.496227893867395 0.0 0.0 0.0 40.0" Properties=species:S:1:pos:R:3:tags:I:1:forces:R:3 energy=-1201.7037688539965 stress="0.0028449707530257707 5.610734459193419e-08 -2.1984528771089247e-07 5.610734459193419e-08 0.0028448530122120183 -3.9460001954943e-07 -2.1984528771089247e-07 -3.9460001954943e-07 0.00278048403131358" pbc="T T F"
C       -0.00006940      -0.00011718      10.00677490        2       0.00005628       0.00015693      -0.00456101
Ti       0.00002971       1.74928298       8.71762532        0      -0.00016434      -0.00052700      -0.00195115
Ti       1.51534640       0.87472809      11.30567936        0      -0.00093633      -0.00089499       0.00581401
O       -0.00005675       1.74945484      12.23008024        3       0.00040627       0.00066767      -0.17347521
O        1.51470781       0.87453960       7.77897010        1       0.00017753       0.00007069       0.00114893
C       -1.51515703       2.62407571      10.00577231        2       0.00006233       0.00040844      -0.00365764
Ti      -1.51491878       4.37337954       8.71585698        0      -0.00007678      -0.00008601      -0.00128784
Ti      -0.00015845       3.49930277      11.30495238        0      -0.00087958      -0.00124490       0.00510448
O       -1.51484070       4.37408399      12.23008024        3       0.00051606       0.00031476      -0.18268010
O        0.00002405       3.49833367       7.77868456        1       0.00008998       0.00033429       0.00121181
C       -3.03013458       5.24804124      10.00473514        2       0.00005230      -0.00022210      -0.00322345
Ti      -3.02999947       6.99753438       8.71575715        0      -0.00009325       0.00015988      -0.00156810
Ti      -1.51522553       6.12261862      11.30382283        0      -0.00075622       0.00026794       0.00574460
O       -3.02928118       6.99739800      12.23008024        3       0.00061245      -0.00028349      -0.17764541
O       -1.51493058       6.12278444       7.77817834        1       0.00004602      -0.00005769       0.00151390
C       -4.54500898       7.87197453      10.00558569        2       0.00002840      -0.00043456      -0.00405956
Ti      -4.54503538       9.62162623       8.71743673        0      -0.00023766      -0.00002963      -0.00222196
Ti      -3.02949081       8.74628049      11.30465240        0      -0.00094362      -0.00004306       0.00630406
O       -4.54455002       9.62116620      12.23008024        3       0.00047714       0.00007361      -0.17492416
O       -3.03026933       8.74706932       7.77860037        1       0.00022649      -0.00019978       0.00148460
C        3.03014420      -0.00003282      10.00581950        2       0.00044885       0.00037245      -0.00380569
Ti       3.02979379       1.74924832       8.71586941        0      -0.00027470      -0.00050484      -0.00099049
Ti       4.54525595       0.87479206      11.30194417        0      -0.00013841      -0.00080823       0.00487860
O        3.03021744       1.74936589      12.23008024        3       0.00030160       0.00081596      -0.19193721
O        4.54472197       0.87452584       7.77790313        1       0.00005977       0.00004339       0.00147906
C        1.51506202       2.62407435      10.00589166        2       0.00030407       0.00066401      -0.00323737
Ti       1.51491413       4.37339908       8.71610710        0      -0.00038548      -0.00012100      -0.00099824
Ti       3.03018458       3.49865418      11.30194806        0      -0.00011771      -0.00077291       0.00423918
O        1.51479583       4.37419567      12.23008024        3       0.00034808       0.00078295      -0.18134608
O        3.02970207       3.49854099       7.77787895        1       0.00005280       0.00014078       0.00130163
C       -0.00006880       5.24807406      10.00541674        2       0.00033086      -0.00007656      -0.00307664
Ti       0.00001054       6.99746687       8.71642519        0      -0.00022331       0.00010364      -0.00148721
Ti       1.51502026       6.12269555      11.30444006        0      -0.00013633       0.00057285       0.00476127
O       -0.00015137       6.99732219      12.23008024        3       0.00033232      -0.00040535      -0.15410003
O        1.51494161       6.12275635       7.77834108        1      -0.00005333      -0.00014551       0.00128320
C       -1.51501428       7.87206231      10.00537020        2       0.00051424      -0.00026599      -0.00361282
Ti      -1.51501997       9.62148708       8.71615593        0      -0.00026950      -0.00021814      -0.00148926
Ti       0.00001686       8.74653465      11.30466257        0      -0.00015449       0.00036043       0.00557287
O       -1.51427139       9.62089295      12.23008024        3       0.00054537      -0.00016661      -0.17654837
O       -0.00001594       8.74680647       7.77841068        1      -0.00007093      -0.00014425       0.00129966
C        6.05999698       0.00014044      10.00500482        2      -0.00008872       0.00001380      -0.00307398
Ti       6.05994193       1.74954150       8.71524941        0       0.00014361      -0.00044757      -0.00113755
Ti       7.57446404       0.87477247      11.30184585        0       0.00066736      -0.00014200       0.00514070
O        6.05996711       1.74916929      12.23008024        3      -0.00026127       0.00001015      -0.17215916
O        7.57521438       0.87452724       7.77783734        1      -0.00022495      -0.00002146       0.00148750
C        4.54516500       2.62416701      10.00469122        2      -0.00002545       0.00035921      -0.00243930
Ti       4.54503875       4.37329451       8.71524505        0       0.00000425       0.00014841      -0.00104980
Ti       6.06031743       3.49928149      11.30314926        0       0.00091629      -0.00038594       0.00315387
O        4.54462214       4.37361568      12.23008024        3      -0.00073001      -0.00007716      -0.17070674
O        6.05997695       3.49871416       7.77726453        1      -0.00012646       0.00003314       0.00117273
C        3.03013135       5.24802222      10.00492046        2      -0.00009664      -0.00023281      -0.00251548
Ti       3.02999028       6.99750507       8.71593526        0       0.00001740       0.00038149      -0.00107037
Ti       4.54485921       6.12240677      11.30158368        0       0.00080400       0.00088316       0.00477454
O        3.02917217       6.99740205      12.23008024        3      -0.00075128      -0.00083842      -0.16938543
O        4.54496504       6.12304373       7.77770027        1      -0.00016256      -0.00025961       0.00149821
C        1.51490834       7.87206971      10.00540083        2      -0.00013534      -0.00039980      -0.00330067
Ti       1.51501217       9.62152171       8.71610047        0       0.00019909      -0.00003851      -0.00123538
Ti       3.02934532       8.74631174      11.30470866        0       0.00096751       0.00110540       0.00551298
O        1.51437496       9.62093436      12.23008024        3      -0.00040607      -0.00056447      -0.16875353
O        3.03022647       8.74701540       7.77863986        1      -0.00029376      -0.00035015       0.00129263
C        9.08976816       0.00003193      10.00570095        2      -0.00043476      -0.00011856      -0.00382250
Ti       9.09015983       1.74925892       8.71568817        0       0.00025943      -0.00033150      -0.00123988
Ti      10.60422311       0.87476888      11.30530952        0      -0.00002510      -0.00036951       0.00608949
O        9.08967042       1.74945718      12.23008024        3      -0.00034912       0.00025130      -0.19228536
O       10.60530287       0.87453080       7.77890362        1      -0.00012612       0.00001605       0.00123233
C        7.57489070       2.62419760      10.00465840        2      -0.00058077       0.00015194      -0.00289252
Ti       7.57496225       4.37336778       8.71521567        0       0.00034382       0.00018916      -0.00142088
Ti       9.08987046       3.49864534      11.30157107        0       0.00015265      -0.00058839       0.00512740
O        7.57565711       4.37380944      12.23008024        3      -0.00033205      -0.00020167      -0.16930763
O        9.09027210       3.49853491       7.77769839        1      -0.00011596       0.00022993       0.00153966
C        6.06005058       5.24801141      10.00460844        2      -0.00052775      -0.00063310      -0.00264786
Ti       6.05998141       6.99765561       8.71549996        0       0.00013874       0.00038585      -0.00138759
Ti       7.57497971       6.12268580      11.30140194        0       0.00012079       0.00064281       0.00535882
O        6.06001031       6.99714627      12.23008024        3      -0.00046758      -0.00067355      -0.19184575
O        7.57498458       6.12308446       7.77759064        1       0.00006192      -0.00023364       0.00171711
C        4.54496577       7.87193917      10.00558029        2      -0.00044944      -0.00068613      -0.00360358
Ti       4.54504140       9.62159715       8.71729128        0       0.00016258       0.00009578      -0.00190808
Ti       6.05986912       8.74598477      11.30487309        0      -0.00002567       0.00050800       0.00629592
O        4.54423945       9.62104966      12.23008024        3      -0.00074912      -0.00057505      -0.17695075
O        6.05999710       8.74724187       7.77879266        1      -0.00002973      -0.00033723       0.00137340
C        0.04502266       0.06753962      15.74060656       10      -0.00445284      -0.00309647       0.06595095
C        1.25716901       0.76738414      15.74060656       10       0.00312369       0.00085785       0.06950078
C       -1.16732405       2.16726153      15.74060656       10       0.00123409      -0.00552208       0.05317849
C        0.04494696       2.86666026      15.74060656       10       0.00031965       0.00066136       0.06224259
C       -2.37909098       4.26636854      15.74060656       10       0.00112614      -0.00296552       0.05361654
C       -1.16690961       4.96587532      15.74060656       10       0.00078605       0.00115952       0.04370949
C       -3.59076794       6.36519426      15.74060656       10      -0.00006884      -0.00365675       0.05281299
C       -2.37876199       7.06502042      15.74060656       10      -0.00186943       0.00282152       0.04266679
C       -4.80279932       8.46420860      15.74060656       10      -0.00288253      -0.00143066       0.05129404
C       -3.59099210       9.16425096      15.74060656       10       0.00467857      -0.00048009       0.05833648
C        2.46950529       0.06755349      15.74060656       10      -0.00222724       0.00227688       0.05762706
C        3.68127078       0.76748069      15.74060656       10      -0.00234396      -0.00346800       0.05950194
C        1.25718080       2.16721962      15.74060656       10       0.00016158      -0.00311431       0.05745118
C        2.46910146       2.86676246      15.74060656       10      -0.00082822       0.00102602       0.05906349
C        0.04500293       4.26630480      15.74060656       10      -0.00110135      -0.00173945       0.05571532
C        1.25704474       4.96578005      15.74060656       10      -0.00030786       0.00192706       0.04568352
C       -1.16662071       6.36543544      15.74060656       10      -0.00579373      -0.00217991       0.07029412
C        0.04531603       7.06513909      15.74060656       10      -0.00178854       0.00099694       0.05934221
C       -2.37881222       8.46438609      15.74060656       10      -0.00176187       0.00140172       0.06063885
C       -1.16701647       9.16439548      15.74060656       10       0.00061285      -0.00574429       0.04695308
C        4.89327454       0.06754587      15.74060656       10      -0.00159765       0.00594687       0.05884597
C        6.10508431       0.76764568      15.74060656       10      -0.00214188      -0.00355625       0.04269829
C        3.68116599       2.16703963      15.74060656       10       0.00179423      -0.00015212       0.03871875
C        4.89291700       2.86672560      15.74060656       10       0.00152471      -0.00168555       0.06718657
C        2.46910533       4.26629228      15.74060656       10       0.00176115       0.00031807       0.05715101
C        3.68121225       4.96581130      15.74060656       10      -0.00187411      -0.00009528       0.04417187
C        1.25721604       6.36532839      15.74060656       10      -0.00136827       0.00154289       0.07183189
C        2.46920295       7.06508286      15.74060656       10      -0.00190295       0.00073970       0.04383789
C        0.04504568       8.46458742      15.74060656       10       0.00230739       0.00342201       0.07216533
C        1.25702382       9.16447597      15.74060656       10       0.00163483      -0.00564898       0.04633686
C        7.31696345       0.06763797      15.74060656       10      -0.00048308       0.00581742       0.05756205
C        8.52891793       0.76758657      15.74060656       10       0.00128844      -0.00124904       0.05781575
C        6.10485594       2.16713005      15.74060656       10       0.00155081      -0.00029463       0.05067296
C        7.31675304       2.86666742      15.74060656       10       0.00591969       0.00202795       0.06866361
C        4.89318388       4.26610374      15.74060656       10       0.00003211      -0.00156819       0.05076020
C        6.10500802       4.96580148      15.74060656       10       0.00141267       0.00151401       0.07139517
C        3.68110011       6.36525632      15.74060656       10       0.00101762      -0.00109900       0.05478817
C        4.89318342       7.06487162      15.74060656       10       0.00001912       0.00323269       0.05684531
C        2.46883183       8.46445841      15.74060656       10       0.00309424       0.00335124       0.06694737
C        3.68092471       9.16431571      15.74060656       10       0.00212806      -0.00167601       0.05350927
C        9.74068764       0.06760276      15.74060656       10      -0.00429881       0.00090820       0.05522830
C       10.95283579       0.76741492      15.74060656       10       0.00258312       0.00166407       0.07005065
C        8.52866256       2.16713674      15.74060656       10       0.00201193      -0.00229771       0.03889374
C        9.74078922       2.86680807      15.74060656       10       0.00000401       0.00370407       0.05608748
C        7.31681092       4.26605306      15.74060656       10      -0.00050128      -0.00082552       0.05260715
C        8.52887849       4.96574233      15.74060656       10      -0.00068786       0.00321544       0.04580253
C        6.10515632       6.36507391      15.74060656       10      -0.00021484      -0.00079583       0.03803116
C        7.31718862       7.06480900      15.74060656       10      -0.00098207       0.00563918       0.05619860
C        4.89282100       8.46425508      15.74060656       10      -0.00262509      -0.00070092       0.05308701
C        6.10492700       9.16407403      15.74060656       10       0.00445651       0.00331249       0.07064476
