130
Lattice="12.12 0.0 0.0 -6.06 10.496227893867395 0.0 0.0 0.0 40.0" Properties=species:S:1:pos:R:3:tags:I:1:forces:R:3 energy=-1200.5702644588425 stress="0.0027800738511703253 2.737982577791192e-07 -3.625004910135724e-08 2.737982577791192e-07 0.0027793588260330276 -7.342982785784164e-08 -3.625004910135724e-08 -7.342982785784164e-08 0.002498418566528926" pbc="T T F"
C        0.00000011      -0.00002034       9.99929543        2      -0.00032586      -0.00013319       0.00161225
Ti       0.00002469       1.74910350       8.69779225        0       0.00006672       0.00026821      -0.00206490
Ti       1.51446932       0.87459756      11.31389842        0      -0.00092731      -0.00078062      -0.00017305
O        0.00052939       1.74642519      12.23159545        3       0.00007328      -0.00154780      -0.00793185
O        1.51575095       0.87500940       7.77333501        1      -0.00013336       0.00006186       0.00175263
C       -1.51511112       2.62409761      10.00197269        2      -0.00060491       0.00008494       0.00163267
Ti      -1.51511710       4.37319555       8.69965178        0       0.00030960       0.00025678      -0.00180974
Ti       0.00009355       3.49758658      11.31664277        0      -0.00054362      -0.00040442      -0.00250159
O       -1.51340475       4.37203617      12.23159545        3      -0.00014606      -0.00066101      -0.01363884
O       -0.00006213       3.49954596       7.77430784        1       0.00014849      -0.00039018       0.00183883
C       -3.02999248       5.24805178      10.00412278        2      -0.00060077      -0.00017305       0.00241306
Ti      -3.03023235       6.99747153       8.69990783        0       0.00040835       0.00012380      -0.00191997
Ti      -1.51465111       6.12282159      11.31598817        0      -0.00049999      -0.00021607      -0.00294293
O       -3.02993090       6.99910711      12.23159545        3       0.00001777      -0.00013717      -0.01353167
O       -1.51511823       6.12284589       7.77532467        1       0.00018382      -0.00012840       0.00153537
C       -4.54505428       7.87209642      10.00249345        2       0.00001814      -0.00035834       0.00193336
Ti      -4.54521048       9.62173014       8.69803828        0       0.00033648      -0.00019539      -0.00229207
Ti      -3.03091426       8.74742707      11.31688806        0      -0.00015647       0.00003783      -0.00215623
O       -4.54757765       9.62409566      12.23159545        3      -0.00130716       0.00113710      -0.00714648
O       -3.02936729       8.74634178       7.77459781        1      -0.00018041       0.00034358       0.00184542
C        3.03011028       0.00011162      10.00177153        2       0.00025684      -0.00025224       0.00173202
Ti       3.02991411       1.74931577       8.69976585        0      -0.00023720      -0.00013039      -0.00186924
Ti       4.54453323       0.87425861      11.31882515        0      -0.00066372       0.00026928      -0.00272616
O        3.02711993       1.74784687      12.23159545        3      -0.00102651      -0.00059523      -0.01625603
O        4.54582728       0.87518765       7.77593657        1      -0.00003663      -0.00002531       0.00187873
C        1.51519363       2.62415435      10.00161090        2       0.00006590      -0.00005709       0.00121530
Ti       1.51510329       4.37316425       8.69944645        0      -0.00012592       0.00025932      -0.00129276
Ti       3.02940875       3.49848160      11.31884242        0      -0.00025356      -0.00089526      -0.00316583
O        1.51357054       4.37173963      12.23159545        3      -0.00022787      -0.00055149      -0.01454451
O        3.03093917       3.49916333       7.77586252        1      -0.00009111       0.00010202       0.00191139
C       -0.00001096       5.24751586      10.00265174        2      -0.00033206       0.00001896       0.00171001
Ti      -0.00000363       6.99746879       8.69942532        0      -0.00005998      -0.00003128      -0.00146407
Ti       1.51441125       6.12272175      11.31544201        0       0.00063879       0.00006435      -0.00323177
O       -0.00027973       6.99694282      12.23159545        3      -0.00051494      -0.00017398      -0.01320399
O        1.51512110       6.12293666       7.77523834        1       0.00002547      -0.00025962       0.00159848
C       -1.51540300       7.87229185      10.00282348        2      -0.00057279       0.00013967       0.00215600
Ti      -1.51514810       9.62174875       8.69958752        0       0.00015919      -0.00034105      -0.00164702
Ti      -0.00018292       8.74614994      11.31506091        0       0.00007275       0.00088334      -0.00265453
O       -1.51672211       9.62098002      12.23159545        3      -0.00000447      -0.00000013      -0.01523398
O        0.00007540       8.74686450       7.77522227        1       0.00002756       0.00000123       0.00165707
C        6.05995701       0.00017059      10.00407065        2       0.00000612       0.00048301       0.00208318
Ti       6.06002133       1.74960971       8.70178046        0      -0.00010409      -0.00036114      -0.00212882
Ti       7.57550580       0.87407379      11.31897429        0       0.00064565       0.00065049      -0.00210217
O        6.05993521       1.74887800      12.23159545        3       0.00063676       0.00018088      -0.00478903
O        7.57434455       0.87513577       7.77619560        1       0.00001931      -0.00005523       0.00182395
C        4.54497747       2.62410497      10.00515126        2       0.00059746      -0.00006928       0.00193954
Ti       4.54519079       4.37332620       8.70177706        0      -0.00045084       0.00018240      -0.00184884
Ti       6.06021617       3.49906001      11.31889571        0       0.00037614      -0.00031406      -0.00163652
O        4.54429285       4.37371600      12.23159545        3       0.00048654      -0.00009658      -0.00179131
O        6.06007144       3.49880957       7.77737441        1      -0.00007625       0.00002096       0.00212816
C        3.03009078       5.24794625      10.00415359        2       0.00047635      -0.00001395       0.00130659
Ti       3.03021103       6.99745708       8.69992771        0      -0.00033002      -0.00005243      -0.00157575
Ti       4.54472978       6.12350165      11.31918143        0       0.00100883       0.00056821      -0.00295433
O        3.02940248       6.99870301      12.23159545        3       0.00041655       0.00017120      -0.01419610
O        4.54517730       6.12209647       7.77636390        1      -0.00026334      -0.00012181       0.00178035
C        1.51528931       7.87222285      10.00295803        2       0.00009652       0.00039001       0.00190191
Ti       1.51509483       9.62172999       8.69981829        0      -0.00019544      -0.00032196      -0.00182941
Ti       3.03073195       8.74722396      11.31690721        0       0.00013770       0.00060941      -0.00208888
O        1.51592513       9.62053470      12.23159545        3       0.00040824       0.00011194      -0.01474647
O        3.02934733       8.74640635       7.77481122        1       0.00021670       0.00013317       0.00183767
C        9.08995964       0.00002987      10.00229630        2       0.00000900       0.00026332       0.00194289
Ti       9.09009383       1.74935008       8.70015366        0       0.00021496      -0.00017903      -0.00233271
Ti      10.60582576       0.87454762      11.31455295        0       0.00089348      -0.00045810       0.00009438
O        9.09269603       1.74812045      12.23159545        3       0.00019507      -0.00025071      -0.01763468
O       10.60414691       0.87499312       7.77357701        1       0.00018492      -0.00011587       0.00197210
C        7.57510958       2.62402553      10.00522877        2       0.00008809       0.00013611       0.00232054
Ti       7.57490611       4.37336286       8.70184858        0       0.00033193       0.00020331      -0.00221271
Ti       9.09070879       3.49846581      11.31886225        0       0.00008450      -0.00067098      -0.00181748
O        7.57607865       4.37397089      12.23159545        3       0.00006928      -0.00048750       0.00090586
O        9.08912435       3.49905099       7.77606124        1       0.00006900      -0.00002466       0.00200596
C        6.05997630       5.24831110      10.00533927        2       0.00050238      -0.00019533       0.00224277
Ti       6.06003194       6.99756012       8.70042350        0      -0.00002845       0.00034675      -0.00214136
Ti       7.57519934       6.12345157      11.31903029        0      -0.00091293       0.00045350      -0.00219020
O        6.06015442       7.00013440      12.23159545        3      -0.00009321       0.00025177      -0.01636164
O        7.57481169       6.12203232       7.77630616        1       0.00004952      -0.00004088       0.00191556
C        4.54503580       7.87209564      10.00264402        2       0.00019205       0.00010622       0.00183558
Ti       4.54525677       9.62171807       8.69818442        0      -0.00035861      -0.00029448      -0.00215030
Ti       6.06013258       8.74780159      11.31521195        0       0.00004963       0.00150412      -0.00024448
O        4.54821410       9.62386518      12.23159545        3       0.00090906       0.00034517      -0.00920830
O        6.05994684       8.74588044       7.77385619        1      -0.00018705       0.00022633       0.00187439
C        0.04533825       0.06779608      16.31054282       10      -0.00481271       0.00005615      -0.03012004
C        1.25693094       0.76728373      16.31054282       10      -0.00667574      -0.00349440       0.02748801
C       -1.16621783       2.16614724      16.31054282       10       0.00219387      -0.00056305      -0.02271033
C        0.04473720       2.86615991      16.31054282       10       0.00504695      -0.00285888       0.00945928
C       -2.37781133       4.26615005      16.31054282       10      -0.00017977       0.00007037       0.00844898
C       -1.16680867       4.96556461      16.31054282       10      -0.00029535      -0.00233832      -0.00581783
C       -3.59005393       6.36620289      16.31054282       10      -0.00422077       0.00115692       0.01146179
C       -2.37896488       7.06526282      16.31054282       10      -0.00306644       0.00203436      -0.00844864
C       -4.80328922       8.46586352      16.31054282       10       0.00345767       0.00064925      -0.01941671
C       -3.59149183       9.16463269      16.31054282       10      -0.00161156       0.00114217       0.00903685
C        2.46830416       0.06739773      16.31054282       10      -0.00619179      -0.00048666      -0.01821682
C        3.68054790       0.76702162      16.31054282       10      -0.00473438       0.00090626       0.01171076
C        1.25596796       2.16621279      16.31054282       10       0.00365545      -0.00324582      -0.02158692
C        2.46816472       2.86600360      16.31054282       10       0.00224996       0.00056442       0.01222443
C        0.04499106       4.26559370      16.31054282       10       0.00098611      -0.00291249       0.00782266
C        1.25684719       4.96540678      16.31054282       10      -0.00079075      -0.00067365      -0.00620871
C       -1.16636875       6.36557766      16.31054282       10      -0.00171231      -0.00159612       0.04048574
C        0.04515792       7.06500485      16.31054282       10      -0.00075347       0.00104068      -0.03308898
C       -2.37942542       8.46479761      16.31054282       10      -0.00094753       0.00233400       0.01388266
C       -1.16746103       9.16420704      16.31054282       10      -0.00022061       0.00247869      -0.00992417
C        4.89267784       0.06655540      16.31054282       10      -0.00369005      -0.00049557       0.01424915
C        6.10501929       0.76750983      16.31054282       10      -0.00178686      -0.00231958      -0.00198209
C        3.67957413       2.16592037      16.31054282       10       0.00210090       0.00199467      -0.00645556
C        4.89248905       2.86624011      16.31054282       10       0.00110839       0.00219123       0.01203145
C        2.46786003       4.26592812      16.31054282       10      -0.00078832       0.00049722       0.01013812
C        3.68112224       4.96550571      16.31054282       10      -0.00140464       0.00056355      -0.00299930
C        1.25681608       6.36541189      16.31054282       10      -0.00119776      -0.00150664       0.04521700
C        2.46923067       7.06530689      16.31054282       10      -0.00140019      -0.00083511      -0.01282806
C        0.04483006       8.46421970      16.31054282       10       0.00184874       0.00169455       0.04846893
C        1.25701473       9.16437148      16.31054282       10       0.00428383      -0.00010288      -0.01374618
C        7.31743373       0.06668609      16.31054282       10      -0.00008862      -0.00310108       0.01772830
C        8.52971853       0.76727796      16.31054282       10      -0.00038083      -0.00151090       0.00856755
C        6.10480201       2.16597835      16.31054282       10       0.00031407      -0.00133087      -0.00281417
C        7.31717857       2.86638179      16.31054282       10       0.00095947       0.00175223       0.01273755
C        4.89234279       4.26615529      16.31054282       10      -0.00104801       0.00112657      -0.00536539
C        6.10511221       4.96594750      16.31054282       10      -0.00136845       0.00157248       0.01392554
C        3.68038012       6.36606329      16.31054282       10      -0.00189962       0.00046590       0.01695119
C        4.89329880       7.06555921      16.31054282       10      -0.00231992       0.00288111       0.00684243
C        2.46895424       8.46483133      16.31054282       10       0.00627062      -0.00000727       0.02119320
C        3.68105034       9.16460893      16.31054282       10       0.00736915       0.00142599       0.00913067
C        9.74203423       0.06735303      16.31054282       10       0.00076039      -0.00023234      -0.01421066
C       10.95362699       0.76718584      16.31054282       10      -0.00384593      -0.00096557       0.02675272
C        8.53001234       2.16613621      16.31054282       10       0.00222033      -0.00130902      -0.00638401
C        9.74149325       2.86622165      16.31054282       10       0.00446040      -0.00151190       0.00945096
C        7.31752082       4.26617429      16.31054282       10       0.00079419       0.00201998      -0.00855406
C        8.52886421       4.96567482      16.31054282       10       0.00147912      -0.00055486      -0.00344896
C        6.10522220       6.36653469      16.31054282       10      -0.00438100       0.00131383      -0.00723187
C        7.31716035       7.06584666      16.31054282       10      -0.00212996      -0.00026348       0.00741778
C        4.89272713       8.46558900      16.31054282       10       0.00772201       0.00349340      -0.01442938
C        6.10471528       9.16488234      16.31054282       10       0.00505372      -0.00003732       0.02621183
