132
Lattice="12.12 0.0 0.0 -6.06 10.496227893867395 0.0 0.0 0.0 40.0" Properties=species:S:1:pos:R:3:tags:I:1:forces:R:3 energy=-1209.6891462015296 stress="0.0028059858410919183 -7.753509246293684e-06 7.909210904738149e-06 -7.753509246293684e-06 0.0027825550342893543 -4.59273234845303e-06 7.909210904738149e-06 -4.59273234845303e-06 0.0028113928614429307" pbc="T T F"
C        0.00141479      -0.00156148       9.98551059        2       0.00045157      -0.00011744       0.00163108
Ti       0.00051443       1.75396843       8.70389129        0       0.00275626       0.00040275       0.00005051
Ti       1.52173279       0.87835062      11.30622823        0       0.00072217       0.00014266       0.00006816
O        0.00229197       1.74540453      12.23159545        3       0.00169518       0.00146294      -0.08908010
O        1.51133264       0.87903188       7.77736449        1       0.00349188      -0.00235140       0.00070165
C       -1.51451152       2.62807914      10.01075029        2       0.00010134      -0.00130257      -0.00019235
Ti      -1.50941213       4.38346507       8.70824272        0       0.00169586      -0.00047188       0.00225759
Ti      -0.00810171       3.50093046      11.31192525        0      -0.00014664       0.00351425      -0.00090689
O       -1.48496025       4.41858786      12.23159545        3      -0.00308234      -0.00436391      -0.48477399
O       -0.00319753       3.50107952       7.78187425        1       0.00050406      -0.00044934      -0.00134321
C       -3.02782902       5.25425510       9.99781725        2      -0.00025292       0.00083146      -0.00270626
Ti      -3.03067747       7.00072158       8.70171641        0       0.00223650       0.00104528       0.00199671
Ti      -1.50986714       6.14159635      11.28994787        0       0.00186591      -0.00394931       0.00230816
O       -3.03112102       7.00966537      12.23159545        3       0.00048293       0.00006853      -0.03192517
O       -1.51747924       6.12516005       7.77627830        1       0.00173813      -0.00058005      -0.00127726
C       -4.54577545       7.87649964       9.98639108        2      -0.00047555       0.00131808       0.00045257
Ti      -4.54711891       9.62467528       8.69949820        0       0.00139076      -0.00164865      -0.00143854
Ti      -3.03357100       8.75023229      11.31373105        0       0.00229932       0.00388416      -0.00014271
O       -4.54939139       9.62557513      12.23159545        3       0.00157953      -0.00123541      -0.06367129
O       -3.03250942       8.74797648       7.77517896        1       0.00005546      -0.00032919       0.00014739
C        3.02958051       0.00269196       9.98831842        2       0.00052470      -0.00218440       0.00045369
Ti       3.02845399       1.75370647       8.69896719        0       0.00081466      -0.00129593       0.00109627
Ti       4.54560132       0.88198861      11.30836426        0       0.00314838      -0.00037271      -0.00039213
O        3.02791909       1.75288177      12.23159545        3      -0.00096205      -0.00121166      -0.04174337
O        4.54475629       0.87958551       7.77425767        1       0.00062618      -0.00200655       0.00118087
C        1.51609507       2.62707031       9.98719251        2       0.00316863      -0.00189329      -0.00131080
Ti       1.51539124       4.37606446       8.70108274        0       0.00165578      -0.00126190      -0.00102266
Ti       3.02969997       3.50392582      11.31081871        0       0.00131926      -0.00255919      -0.00164409
O        1.51835989       4.37590797      12.23159545        3       0.00278432       0.00043854      -0.03511054
O        3.03027871       3.50183549       7.77592444        1       0.00167619      -0.00114484      -0.00078262
C        0.00337286       5.25818178       9.98277010        2      -0.00001151       0.00080024      -0.00116277
Ti       0.00224802       7.00003387       8.69740795        0       0.00072219       0.00114016      -0.00149370
Ti       1.51510706       6.12355323      11.31513544        0      -0.00156865       0.00129690       0.00175581
O        0.00668293       7.00467812      12.23159545        3      -0.00092852      -0.00174589      -0.05587245
O        1.51598993       6.12413866       7.77531366        1       0.00124557      -0.00015572      -0.00108534
C       -1.51486845       7.88196854       9.98548205        2       0.00242301       0.00199114       0.00013329
Ti      -1.51615126       9.62431475       8.69132936        0      -0.00051255      -0.00406238      -0.00047265
Ti       0.00524735       8.75211916      11.31239735        0       0.00020894       0.00077901       0.00097877
O       -1.51748016       9.62521581      12.23159545        3       0.00107330       0.00059378      -0.06994656
O       -0.00299901       8.74930361       7.77089583        1       0.00377719       0.00134724      -0.00018821
C        6.05205449      -0.00285275       9.98563800        2       0.00191779       0.00000023       0.00080846
Ti       6.05668772       1.75307638       8.70347794        0      -0.00081294      -0.00153830       0.00004420
Ti       7.56327648       0.86795581      11.28114597        0      -0.00488132      -0.00511531      -0.00299319
O        6.05793612       1.74603860      12.23159545        3       0.00034468       0.00334538      -0.01539503
O        7.57445130       0.87841564       7.77486746        1      -0.00037216       0.00143131       0.00059905
C        4.54316985       2.62487386       9.98507845        2       0.00024810      -0.00024778      -0.00088127
Ti       4.54525220       4.37484845       8.69981882        0      -0.00000409      -0.00141164      -0.00080162
Ti       6.06545794       3.49493614      11.30620604        0      -0.00010608       0.00186674      -0.00149584
O        4.54571608       4.37403672      12.23159545        3       0.00025754      -0.00133940      -0.05399514
O        6.06231222       3.50079279       7.77799317        1       0.00015812      -0.00115794       0.00074972
C        3.03230802       5.24945939       9.98625564        2       0.00180528      -0.00050333       0.00016905
Ti       3.03216843       6.99666947       8.69941882        0       0.00173897       0.00054751       0.00145491
Ti       4.54773930       6.12163558      11.30314776        0       0.00144643      -0.00068878       0.00211739
O        3.03208087       6.99820720      12.23159545        3       0.00110272       0.00141941      -0.06987416
O        4.54717177       6.12284904       7.77417572        1       0.00084729       0.00006788       0.00035686
C        1.51549934       7.87536620       9.98312484        2       0.00062416      -0.00019763      -0.00009577
Ti       1.51622006       9.61714382       8.69566182        0       0.00102323       0.00063834       0.00011976
Ti       3.03127543       8.74958831      11.30527852        0       0.00207049       0.00099078       0.00140361
O        1.51907317       9.62206735      12.23159545        3       0.00159518      -0.00133639      -0.04620488
O        3.03043507       8.74535529       7.76996980        1       0.00150072      -0.00207624      -0.00027652
C        9.08772730      -0.00773591       9.97500093        2       0.00215946       0.00018830      -0.00216782
Ti       9.08435429       1.74443288       8.69090705        0       0.00138678      -0.00085299       0.00049494
Ti      10.61692601       0.87454700      11.28758948        0       0.00534795       0.00078165      -0.00399524
O        9.08155901       1.69073618      12.23159545        3       0.00658522      -0.00233572      -0.33157404
O       10.60363486       0.88091654       7.77822081        1       0.00327124       0.00276576       0.00026920
C        7.57692909       2.62365690       9.99519548        2       0.00190150       0.00103846       0.00185085
Ti       7.57049123       4.37605756       8.70460956        0       0.00070816       0.00034065       0.00052586
Ti       9.11815679       3.51730722      11.34680458        0       0.00496781       0.00416594      -0.00532100
O        7.57424932       4.37529429      12.23159545        3       0.00437469       0.00018764      -0.04995839
O        9.09258921       3.50031052       7.79545697        1       0.00170999      -0.00216672      -0.00072897
C        6.06275308       5.24812487       9.98862812        2       0.00158613       0.00017779       0.00153219
Ti       6.06036481       6.99900428       8.69839471        0       0.00007278      -0.00004347      -0.00146977
Ti       7.57780831       6.12631905      11.30515418        0       0.00186823       0.00043499      -0.00205640
O        6.06132739       7.00124686      12.23159545        3       0.00243826      -0.00121699      -0.04093550
O        7.57724478       6.12217502       7.77915345        1       0.00090980       0.00192665      -0.00101946
C        4.54588039       7.87203264       9.98447935        2       0.00148149       0.00073316      -0.00058445
Ti       4.54282038       9.61996953       8.69456517        0       0.00101148       0.00060682      -0.00053753
Ti       6.05502663       8.74478311      11.31243491        0       0.00094122      -0.00320760       0.00159346
O        4.54657317       9.62204861      12.23159545        3       0.00136127       0.00284151      -0.05201349
O        6.06093724       8.74728460       7.77412779        1       0.00055674      -0.00080420      -0.00109867
C        0.06351028       0.06834377      15.85829583       10      -0.00555842      -0.00194918      -0.01755448
C        1.26823689       0.77311988      15.86668406       10       0.00119224       0.00202098      -0.02337329
C       -1.13348464       2.15670454      15.83392516       10      -0.00120693       0.00343273       0.34444768
C        0.05668281       2.87002333      15.84156390       10      -0.00198384       0.00134624       0.07165853
C       -2.37016868       4.31248148      15.83391961       10      -0.00083076      -0.00232871       0.74640528
C       -1.15935986       4.97991975      15.84156134       10      -0.00266731      -0.00170295       0.07028193
C       -3.58311459       6.38505951      15.85829528       10      -0.00232352      -0.00118212       0.02220762
C       -2.37045051       7.07720937      15.86668386       10      -0.00078412      -0.00129011       0.02163924
C       -4.79255110       8.47248818      15.85640289       10      -0.00571612      -0.00002639       0.00677326
C       -3.58182269       9.17288967      15.86769255       10       0.00220878       0.00419513      -0.00640570
C        2.48122064       0.07360977      15.86871757       10      -0.00023558       0.00174066       0.00885364
C        3.68960462       0.77440402      15.86769246       10      -0.00185826       0.00002669       0.01402501
C        1.27364905       2.16881806      15.85829604       10      -0.00212568       0.00071243       0.00398898
C        2.47986801       2.87284998      15.84923591       10      -0.00054326      -0.00023525       0.01541563
C        0.05760964       4.27519110      15.81543602       10      -0.00617239      -0.00069097       0.02095734
C        1.26599646       4.97232573      15.82710597       10      -0.00610172      -0.00047710      -0.00261362
C       -1.15800170       6.38428125      15.85829528       10      -0.00148655      -0.00172115       0.01476163
C        0.05501433       7.07523414      15.84923601       10      -0.00210062       0.00049397       0.03815173
C       -2.36941690       8.47625812      15.86871778       10      -0.00218231      -0.00060253       0.02182914
C       -1.15875477       9.17312384      15.86769255       10      -0.00418758       0.00114690       0.01335123
C        4.89871834       0.07389293      15.86871757       10      -0.00370183       0.00125106       0.02079932
C        6.11026107       0.77340734      15.86668406       10      -0.00378794       0.00083110       0.04345899
C        3.68926448       2.17292532      15.85640276       10      -0.00156397      -0.00211504       0.02069458
C        4.89886394       2.87368143      15.84923591       10      -0.00246935      -0.00024259       0.06544996
C        2.47906859       4.27158384      15.83535241       10      -0.00274957       0.00183587       0.03008448
C        3.69039720       4.97314881      15.83256455       10      -0.00167649       0.00440242       0.03956877
C        1.26604237       6.37339945      15.83535231       10      -0.00185438       0.00085304       0.03926138
C        2.47940863       7.07166617      15.83256444       10      -0.00069511       0.00010273       0.01914450
C        0.05307218       8.47261756      15.85640289       10      -0.00347215       0.00134506       0.01932469
C        1.26442687       9.16890076      15.84923576       10      -0.00122415      -0.00065055       0.03349405
C        7.31532835       0.06837428      15.85829583       10      -0.00189911       0.00139465       0.02002433
C        8.53056911       0.77016514      15.84156371       10      -0.00158206       0.00298010       0.11114906
C        6.10342692       2.16944856      15.85829604       10      -0.00172373       0.00062194       0.03378765
C        7.31947533       2.87128786      15.84156390       10      -0.00015960      -0.00017528       0.09323380
C        4.90197056       4.27184165      15.83535241       10      -0.00187518       0.00161996       0.04982737
C        6.11421957       4.97314289      15.82710597       10      -0.00061588       0.00052157       0.02844121
C        3.69094878       6.37201565      15.82948655       10      -0.00136682       0.00348444       0.01856761
C        4.90214785       7.07190880      15.83256444       10      -0.00308218       0.00106198       0.02100753
C        2.47641525       8.47128484      15.83535214       10      -0.00085460      -0.00180557       0.03161448
C        3.69044140       9.17112634      15.82710556       10      -0.00190805      -0.00163433      -0.02102483
C        9.75007636       0.06892865      15.81543597       10      -0.00465310      -0.00195681      -0.02375734
C       10.96759379       0.77106420      15.84156371       10       0.00220851       0.00463444       0.04682095
C        8.50537557       2.15543090      15.83392516       10       0.00054029       0.00267771       0.39462102
C        9.74447614       2.87336422      15.58956590       10       0.00001920       0.00219083      -1.21545720
C        7.32244553       4.27712010      15.81543602       10      -0.00082900      -0.00046334       0.03644099
C        8.53858858       4.98258783      15.84156134       10       0.00106580      -0.00242050       0.12982244
C        6.11474342       6.37370690      15.83535231       10      -0.00496126       0.00074169       0.03909268
C        7.32495615       7.07538068      15.84923601       10      -0.00393753      -0.00130123       0.02939498
C        4.90382589       8.47137363      15.83535214       10      -0.00500176      -0.00368711       0.02234590
C        6.11571745       9.16905886      15.84923576       10      -0.00001084       0.00017069      -0.01900815
O        9.76223840       2.97722239      14.11220394       11      -0.00069504      -0.00283129      -0.00171592
H        9.42854067       2.15632888      13.64837509       12       0.00374209      -0.00096684       0.00454773
