132
Lattice="12.12 0.0 0.0 -6.06 10.496227893867395 0.0 0.0 0.0 40.0" Properties=species:S:1:pos:R:3:tags:I:1:forces:R:3 energy=-1209.844900045549 stress="0.0028128429364032773 -4.433758864709428e-07 6.102129279042329e-07 -4.433758864709428e-07 0.002809765393667878 7.075289280944199e-07 6.102129279042329e-07 7.075289280944199e-07 0.002161986046498632" pbc="T T F"
C        0.00221930       0.00208723      10.00049408        2       0.00110549       0.00054893      -0.00056591
Ti       0.00130633       1.75141277       8.69439968        0      -0.00018879       0.00068864      -0.00258631
Ti       1.51351100       0.87967745      11.30841932        0       0.00013899       0.00003449      -0.00112285
O       -0.00028630       1.75157181      12.23159545        3       0.00048885      -0.00064492       0.06483865
O        1.51326512       0.87936519       7.77101471        1       0.00076870       0.00005981      -0.00002896
C       -1.51654283       2.62895071      10.01372990        2       0.00032431       0.00058646      -0.00155908
Ti      -1.51629199       4.37932129       8.69441985        0       0.00108507       0.00055014      -0.00082443
Ti      -0.00461661       3.50273169      11.31506949        0       0.00126778      -0.00045696       0.00154526
O       -1.51604755       4.38070366      12.23159545        3       0.00036339       0.00018912      -0.00729524
O       -0.00302473       3.50215189       7.77655396        1      -0.00000062       0.00025353      -0.00143837
C       -3.03133588       5.25436468      10.00554373        2       0.00069406       0.00060936      -0.00150776
Ti      -3.03147043       7.00284380       8.69351363        0      -0.00079210      -0.00031504      -0.00013246
Ti      -1.51572151       6.12561683      11.31446303        0      -0.00064207       0.00242426      -0.00145609
O       -3.03053628       7.00127873      12.23159545        3      -0.00077898      -0.00051453       0.08813740
O       -1.51646683       6.12554792       7.77386943        1       0.00033404       0.00140179      -0.00022503
C       -4.54638726       7.87604541      10.00362159        2      -0.00055809       0.00025114       0.00048957
Ti      -4.54568420       9.62452031       8.69091827        0      -0.00059211       0.00017869      -0.00020700
Ti      -3.03146258       8.75189888      11.30706289        0       0.00041461      -0.00016267       0.00070482
O       -4.54741924       9.62554841      12.23159545        3      -0.00004101       0.00029349       0.06541290
O       -3.03144876       8.74960246       7.76894091        1       0.00015472       0.00167088       0.00043821
C        3.02910113       0.00335405      10.00305545        2       0.00000148       0.00055379       0.00145997
Ti       3.02946911       1.75415045       8.69377352        0      -0.00062506       0.00163166      -0.00106627
Ti       4.54499764       0.87845889      11.30707125        0      -0.00007314      -0.00049604       0.00117515
O        3.03173150       1.75397348      12.23159545        3      -0.00058913       0.00056243       0.07659796
O        4.54391667       0.87900746       7.76990075        1      -0.00107728      -0.00021253       0.00079864
C        1.51544571       2.62729252      10.00388570        2      -0.00003869      -0.00050617      -0.00074053
Ti       1.51400601       4.37742374       8.69502610        0      -0.00165862      -0.00044878      -0.00021679
Ti       3.02862098       3.50262337      11.30661420        0      -0.00071306       0.00103349       0.00037810
O        1.51255496       4.37830107      12.23159545        3      -0.00028861      -0.00028639       0.08100330
O        3.02796245       3.50310618       7.77157502        1       0.00031054       0.00157467       0.00052757
C       -0.00065123       5.25297768      10.00504919        2      -0.00099634      -0.00002767       0.00031882
Ti      -0.00070222       7.00195598       8.69480336        0       0.00041138      -0.00129947      -0.00020368
Ti       1.51390551       6.12673948      11.30722954        0       0.00160893      -0.00069753      -0.00041493
O       -0.00015245       7.00396277      12.23159545        3       0.00008272      -0.00032946       0.06035807
O        1.51342066       6.12590016       7.77226354        1      -0.00017672      -0.00031337       0.00015180
C       -1.51666962       7.87627465      10.00306615        2       0.00013649       0.00043904       0.00107506
Ti      -1.51669175       9.62499415       8.69184592        0       0.00002549       0.00017569      -0.00259771
Ti      -0.00014197       8.75197417      11.30647611        0       0.00027170       0.00075699       0.00144608
O       -1.51399022       9.62502241      12.23159545        3       0.00025702      -0.00019262       0.07115996
O       -0.00132153       8.75011957       7.76956465        1       0.00033197      -0.00035537       0.00092783
C        6.05634150       0.00246619       9.99978683        2      -0.00000640       0.00019882       0.00097925
Ti       6.05740205       1.75235851       8.69232575        0      -0.00040875       0.00107264      -0.00132250
Ti       7.57554391       0.88000227      11.30234079        0      -0.00042456       0.00084964      -0.00120701
O        6.06032114       1.75255258      12.23159545        3      -0.00047773       0.00083943       0.07855830
O        7.57529561       0.88005234       7.77230674        1      -0.00074084      -0.00051605       0.00020259
C        4.54466190       2.62758977      10.00303315        2      -0.00066137       0.00098076       0.00040346
Ti       4.54405249       4.37751564       8.69293314        0       0.00139112      -0.00051012      -0.00039360
Ti       6.06059266       3.50122376      11.31068483        0      -0.00114535       0.00029230       0.00030700
O        4.54563072       4.37653331      12.23159545        3      -0.00079200       0.00033453       0.05894527
O        6.06061041       3.50251235       7.77315861        1       0.00000560       0.00045553       0.00067963
C        3.02912417       5.25226948      10.00415083        2       0.00029496       0.00063757       0.00021033
Ti       3.02847996       7.00186895       8.69237248        0      -0.00066587       0.00095383      -0.00262927
Ti       4.54297145       6.12590856      11.30640376        0      -0.00120749       0.00072874       0.00016265
O        3.02781699       7.00271400      12.23159545        3      -0.00025093       0.00009435       0.06446231
O        4.54305857       6.12665637       7.77076125        1       0.00062490       0.00040497      -0.00014507
C        1.51399631       7.87727139      10.00242305        2       0.00107332      -0.00040236       0.00030826
Ti       1.51207619       9.62479645       8.69085915        0       0.00040786      -0.00017854      -0.00150288
Ti       3.02970243       8.75344247      11.30726658        0       0.00117179      -0.00123639       0.00032868
O        1.51181429       9.62582597      12.23159545        3       0.00055441      -0.00012100       0.07393616
O        3.02902800       8.75192639       7.77127090        1       0.00100914       0.00109338       0.00056709
C        9.08810065       0.00412670      10.00457740        2      -0.00030961       0.00133714       0.00069730
Ti       9.08824569       1.75294351       8.69447645        0       0.00080365      -0.00034248       0.00018646
Ti      10.60361684       0.88146843      11.29617114        0      -0.00029084       0.00039518      -0.00020240
O        9.08893897       1.75213938      12.23159545        3       0.00018557      -0.00040889       0.12026155
O       10.60359438       0.88110631       7.77363413        1       0.00006331      -0.00009090      -0.00142120
C        7.57358748       2.62746951      10.00699202        2       0.00009640      -0.00011117      -0.00113256
Ti       7.57355200       4.37861808       8.69462562        0       0.00022718       0.00046329      -0.00144509
Ti       9.08775249       3.50610338      11.30500445        0       0.00099936      -0.00059342       0.00103396
O        7.57004730       4.37920374      12.23159545        3       0.00053206      -0.00040384       0.02191683
O        9.09005904       3.50234609       7.77558297        1       0.00044616      -0.00020752      -0.00211581
C        6.05750433       5.25252234      10.00188827        2       0.00042988       0.00009325       0.00248846
Ti       6.05790166       7.00065651       8.69304849        0       0.00188753      -0.00008028       0.00034501
Ti       7.57419843       6.12683723      11.31073854        0      -0.00026046      -0.00012246       0.00037014
O        6.05755359       6.99919260      12.23159545        3       0.00033489       0.00116142       0.07651029
O        7.57433489       6.12588598       7.77258117        1       0.00027289       0.00074858       0.00078400
C        4.54350145       7.87682864      10.00295826        2      -0.00004068      -0.00013485       0.00058777
Ti       4.54496331       9.62557659       8.69196372        0       0.00103676       0.00116811      -0.00054908
Ti       6.05689731       8.75162046      11.30734540        0      -0.00013040       0.00119082       0.00073337
O        4.54404384       9.62836227      12.23159545        3       0.00079627       0.00067505       0.08067740
O        6.05846288       8.75074036       7.77014587        1      -0.00010478      -0.00055254       0.00082856
C        0.06183844       0.06769400      17.13724320       10       0.00309603       0.00015635       0.01373913
C        1.26765627       0.77197026      17.14563143       10       0.00004685      -0.00174733       0.01785971
C       -1.13088093       2.15647317      17.11287253       10      -0.00134494       0.00021825       0.35232980
C        0.05635690       2.86935530      17.12051127       10      -0.00162149      -0.00079125       0.02026876
C       -2.37190969       4.30848485      17.11286698       10       0.00126158      -0.00182694       0.54808401
C       -1.15988665       4.97926707      17.12050871       10       0.00064960      -0.00015554      -0.02205673
C       -3.58472031       6.38179825      17.13724265       10       0.00201797      -0.00043929      -0.02196445
C       -2.37166598       7.07574345      17.14563123       10       0.00076380       0.00105163      -0.01764644
C       -4.79503634       8.47137320      17.13535026       10       0.00092751      -0.00015432      -0.00647976
C       -3.58328811       9.17135338      17.14663992       10      -0.00239434      -0.00247914      -0.01588902
C        2.47883559       0.07272545      17.14766494       10       0.00128093      -0.00100198       0.00284197
C        3.68790274       0.77321922      17.14663983       10       0.00143635      -0.00084964      -0.01610647
C        1.27235587       2.16805171      17.13724341       10      -0.00010019       0.00014990       0.00090892
C        2.47787764       2.87284978      17.12818328       10       0.00089305      -0.00006752      -0.00559190
C        0.05533008       4.27458999      17.09438339       10       0.00081391      -0.00116051      -0.01694517
C        1.26269404       4.97175576      17.10605334       10       0.00080625      -0.00201563      -0.02845235
C       -1.15940148       6.38204652      17.13724265       10       0.00055216       0.00125395      -0.00949836
C        0.05289451       7.07366107      17.12818338       10       0.00006560       0.00023488      -0.06531784
C       -2.37188011       8.47423617      17.14766515       10       0.00041359       0.00149505      -0.00389089
C       -1.16046628       9.17083763      17.14663992       10       0.00034823       0.00035529      -0.02904756
C        4.89691949       0.07255764      17.14766494       10       0.00018558      -0.00024065      -0.00748695
C        6.10794347       0.77179631      17.14563143       10      -0.00044310      -0.00081962      -0.01148344
C        3.68794074       2.17229423      17.13535013       10       0.00040277      -0.00041909      -0.01927917
C        4.89799943       2.87273905      17.12818328       10      -0.00121186       0.00157885      -0.00821594
C        2.47638644       4.27121585      17.11429978       10       0.00151408      -0.00006749      -0.01510238
C        3.68821609       4.97240448      17.11151192       10      -0.00073420       0.00209501      -0.02642609
C        1.26297497       6.37250580      17.11429968       10      -0.00056661      -0.00178931      -0.00421417
C        2.47577991       7.07149476      17.11151181       10       0.00017325      -0.00226273      -0.02849732
C        0.05090904       8.47115685      17.13535026       10      -0.00082215       0.00022061       0.00076583
C        1.26234355       9.16778021      17.12818313       10      -0.00030351      -0.00180879      -0.01026468
C        7.31336308       0.06755368      17.13724320       10      -0.00043515      -0.00101881      -0.02499869
C        8.52797391       0.77034448      17.12051108       10      -0.00009297      -0.00079722       0.03135510
C        6.10319704       2.16838998      17.13724341       10      -0.00202420      -0.00025394      -0.02665578
C        7.31912711       2.86952618      17.12051127       10      -0.00205240      -0.00205594       0.01463011
C        4.90048889       4.27090366      17.11429978       10      -0.00253945       0.00181472      -0.04166774
C        6.11340532       4.97141443      17.10605334       10      -0.00191143      -0.00082453      -0.01790351
C        3.68807034       6.37154125      17.10843392       10       0.00107032       0.00024858      -0.03219952
C        4.89974446       7.07142918      17.11151181       10       0.00144511      -0.00204650      -0.01446859
C        2.47429803       8.47124690      17.11429951       10      -0.00106980      -0.00194401      -0.00327789
C        3.68797602       9.17121390      17.10605293       10      -0.00113740      -0.00005239      -0.02551237
C        9.74796812       0.06937395      17.09438334       10       0.00305905       0.00270648      -0.04306683
C       10.96754403       0.77092236      17.12051108       10      -0.00098976       0.00051389       0.03587051
C        8.50540385       2.15633521      17.11287253       10      -0.00097841      -0.00029141       0.35207479
C        9.74695142       2.87093239      16.86851327       10      -0.00161055      -0.00020482      -1.74729174
C        7.32074137       4.27485385      17.09438339       10      -0.00154138      -0.00122659      -0.05513618
C        8.53651703       4.97930838      17.12050871       10      -0.00072639      -0.00050459      -0.01291187
C        6.11298536       6.37226838      17.11429968       10       0.00215300      -0.00120451      -0.02596014
C        7.32316910       7.07356247      17.12818338       10       0.00056277       0.00040119      -0.01236880
C        4.90181482       8.47133395      17.11429951       10      -0.00076434      -0.00098567       0.00256630
C        6.11349754       9.16845165      17.12818313       10      -0.00507733      -0.00195158       0.01251212
O        9.74645596       2.95938769      15.32073482       11      -0.00133592       0.00036639      -0.00284280
H        9.68154046       2.06774313      14.92516076       12       0.00041568       0.00123279       0.00215117
