132
Lattice="12.12 0.0 0.0 -6.06 10.496227893867395 0.0 0.0 0.0 40.0" Properties=species:S:1:pos:R:3:tags:I:1:forces:R:3 energy=-1209.9656743978721 stress="0.002819333891267323 -1.2319914319842541e-06 2.33389282116296e-06 -1.2319914319842541e-06 0.0028155598490647864 -1.608886454582431e-06 2.33389282116296e-06 -1.608886454582431e-06 0.002190807032952716" pbc="T T F"
C        0.00437451      -0.00009423       9.99934849        2      -0.00034875      -0.00046022      -0.00231809
Ti       0.00252921       1.74986578       8.69296361        0       0.00107374       0.00014606       0.00055531
Ti       1.51480949       0.87761867      11.30582142        0       0.00122088      -0.00037591      -0.00090423
O        0.00161797       1.74976864      12.23159545        3       0.00053371      -0.00089368       0.04702453
O        1.51420814       0.87778676       7.76949586        1       0.00271356      -0.00126956      -0.00092608
C       -1.51514191       2.62712755      10.01412635        2       0.00145682       0.00011407      -0.00379514
Ti      -1.51478779       4.37788823       8.69436906        0      -0.00087954      -0.00039730       0.00252326
Ti      -0.00316187       3.50021768      11.31334810        0      -0.00172336      -0.00084405       0.00253549
O       -1.51364187       4.37944554      12.23159545        3      -0.00086495      -0.00119789      -0.06637166
O       -0.00183276       3.50058865       7.77554024        1      -0.00058127       0.00001730      -0.00315840
C       -3.02990137       5.25251653      10.00607433        2       0.00032983       0.00080711      -0.00168854
Ti      -3.03054196       7.00087757       8.69325007        0       0.00096600       0.00162184       0.00230841
Ti      -1.51404964       6.12392513      11.31171700        0       0.00076705      -0.00052289       0.00019604
O       -3.02909875       6.99910151      12.23159545        3      -0.00081049       0.00039016       0.04681685
O       -1.51546628       6.12375297       7.77267711        1       0.00030109       0.00073421       0.00114687
C       -4.54519130       7.87437695      10.00278426        2       0.00123665      -0.00098280      -0.00069538
Ti      -4.54444862       9.62270553       8.68967720        0      -0.00037686       0.00026384       0.00335706
Ti      -3.02993655       8.74965920      11.30500608        0      -0.00009900      -0.00029171      -0.00072673
O       -4.54517810       9.62285470      12.23159545        3       0.00079895       0.00036199       0.05873420
O       -3.03020555       8.74745310       7.76786031        1       0.00034880       0.00154650      -0.00175243
C        3.03031083       0.00158642      10.00227670        2       0.00040787       0.00024286      -0.00195398
Ti       3.03054922       1.75248987       8.69301631        0      -0.00104905       0.00161595       0.00141630
Ti       4.54642527       0.87688905      11.30497639        0      -0.00039297      -0.00070544      -0.00085947
O        3.03287083       1.75216631      12.23159545        3       0.00038105      -0.00035761       0.07619077
O        4.54543517       0.87763810       7.76915461        1      -0.00221315      -0.00161181      -0.00326061
C        1.51712146       2.62513438      10.00265605        2      -0.00035384       0.00052479      -0.00180597
Ti       1.51526826       4.37579661       8.69425808        0      -0.00031280      -0.00100607       0.00374698
Ti       3.02964695       3.50064317      11.30495596        0       0.00052442      -0.00036314      -0.00164411
O        1.51332662       4.37576910      12.23159545        3       0.00039712       0.00027689       0.04889984
O        3.02935186       3.50144037       7.77035833        1      -0.00039566       0.00207457       0.00015128
C        0.00066618       5.25161923      10.00415604        2       0.00048006      -0.00097673      -0.00024342
Ti       0.00027490       7.00028944       8.69362891        0       0.00062479      -0.00103236       0.00341670
Ti       1.51522432       6.12467139      11.30579972        0      -0.00012840       0.00051903      -0.00229527
O        0.00116844       7.00224834      12.23159545        3       0.00204595       0.00114577      -0.00296105
O        1.51456931       6.12431588       7.77132248        1       0.00108604      -0.00122249      -0.00193538
C       -1.51519878       7.87500842      10.00217809        2      -0.00012301      -0.00018764      -0.00044142
Ti      -1.51579003       9.62338714       8.69105644        0       0.00106302      -0.00038310       0.00001528
Ti       0.00158895       8.75058611      11.30494081        0       0.00076458       0.00018593      -0.00018456
O       -1.51318733       9.62354626      12.23159545        3      -0.00021181      -0.00042576       0.03204771
O       -0.00026272       8.74844849       7.76836602        1       0.00065675      -0.00128426      -0.00136123
C        6.05732896       0.00049677       9.99872144        2      -0.00044930      -0.00100304      -0.00142202
Ti       6.05876828       1.75054689       8.69158661        0      -0.00155955      -0.00082501       0.00223962
Ti       7.57713262       0.87831089      11.29950824        0       0.00174022       0.00100889       0.00044315
O        6.06173782       1.75003045      12.23159545        3      -0.00085550      -0.00036178       0.04904471
O        7.57659397       0.87855733       7.77092893        1      -0.00018051      -0.00025754       0.00292825
C        4.54553493       2.62585574      10.00248253        2       0.00153053       0.00003143      -0.00124592
Ti       4.54528810       4.37555866       8.69207900        0      -0.00009442       0.00175522       0.00314214
Ti       6.06157535       3.49909811      11.30907622        0       0.00006975      -0.00044328       0.00022490
O        4.54632418       4.37480644      12.23159545        3      -0.00113157       0.00058418       0.02655592
O        6.06188232       3.50084338       7.77237332        1       0.00145034       0.00016898       0.00030091
C        3.03042658       5.25049133      10.00356401        2      -0.00016880      -0.00031524      -0.00143775
Ti       3.02970422       7.00002267       8.69240248        0       0.00114530      -0.00063707      -0.00248879
Ti       4.54445351       6.12392820      11.30433262        0       0.00139211       0.00075377      -0.00030343
O        3.02935163       7.00050531      12.23159545        3       0.00086139      -0.00105733       0.03090261
O        4.54442691       6.12475401       7.77007796        1       0.00009455       0.00044598      -0.00229182
C        1.51522119       7.87540070      10.00189363        2       0.00012218       0.00094070      -0.00244459
Ti       1.51306368       9.62317068       8.68946064        0      -0.00015310      -0.00076151       0.00253652
Ti       3.03112498       8.75110514      11.30491735        0       0.00006665       0.00036508      -0.00090747
O        1.51365830       9.62441557      12.23159545        3       0.00107176      -0.00034946       0.03220649
O        3.03020922       8.75003008       7.77009685        1       0.00100663       0.00020188      -0.00150709
C        9.08938472       0.00197109      10.00320556        2       0.00128045       0.00062623       0.00117483
Ti       9.08961377       1.75084153       8.69446828        0       0.00056584       0.00160675       0.00180044
Ti      10.60647093       0.87815176      11.29059183        0      -0.00145028      -0.00011421      -0.00068408
O        9.09145994       1.74789793      12.23159545        3       0.00139270       0.00271321       0.09944957
O       10.60480135       0.87934038       7.77190797        1       0.00016330       0.00077437      -0.00108097
C        7.57501924       2.62550719      10.00764069        2      -0.00027873       0.00003164      -0.00087280
Ti       7.57431933       4.37697354       8.69466939        0       0.00367167      -0.00142636       0.00168387
Ti       9.09029732       3.50339226      11.30688426        0       0.00061464       0.00001054      -0.00003007
O        7.57115472       4.37717336      12.23159545        3       0.00109575      -0.00127905      -0.01785938
O        9.09114236       3.50062004       7.77653588        1       0.00076106       0.00012837      -0.00610340
C        6.05879568       5.25046550      10.00187385        2       0.00072837      -0.00026559      -0.00048275
Ti       6.05929272       6.99896678       8.69246494        0      -0.00040176      -0.00037334       0.00423833
Ti       7.57586366       6.12442064      11.30965412        0      -0.00041210      -0.00105042       0.00088476
O        6.05938799       6.99808730      12.23159545        3      -0.00008304       0.00174256       0.04908592
O        7.57552021       6.12397611       7.77181577        1       0.00063638      -0.00135502       0.00048205
C        4.54490695       7.87467067      10.00220095        2       0.00090250       0.00105179      -0.00148548
Ti       4.54601846       9.62386026       8.69012283        0       0.00189385       0.00014919       0.00449499
Ti       6.05812338       8.74973286      11.30603861        0       0.00031635       0.00111332      -0.00060101
O        4.54511542       9.62586310      12.23159545        3      -0.00041254      -0.00061251       0.08033252
O        6.05973416       8.74869323       7.76867144        1      -0.00048261      -0.00038990       0.00068431
C        0.06001545       0.07035624      16.99513794       10      -0.00009846       0.00102943       0.00837850
C        1.26566633       0.77434305      17.00352617       10      -0.00078666       0.00232277       0.01006342
C       -1.13266740       2.15921344      16.97076727       10      -0.00245645      -0.00130594       0.35808930
C        0.05454211       2.87192514      16.97840601       10      -0.00213636       0.00011386       0.02777182
C       -2.37351758       4.31183413      16.97076172       10      -0.00236201      -0.00070642       0.57307687
C       -1.16152184       4.98190531      16.97840345       10      -0.00267346      -0.00131960      -0.00543356
C       -3.58650103       6.38529831      16.99513739       10      -0.00139909      -0.00231668      -0.00684313
C       -2.37372339       7.07913916      17.00352597       10      -0.00093634      -0.00421259      -0.00275166
C       -4.79710419       8.47437517      16.99324500       10       0.00157210      -0.00046313       0.00895603
C       -3.58560608       9.17416230      17.00453466       10       0.00042227       0.00045144      -0.00765983
C        2.47688347       0.07513767      17.00555968       10      -0.00017216       0.00242480       0.01818797
C        3.68589206       0.77573919      17.00453457       10      -0.00008481       0.00190669      -0.00372761
C        1.27037514       2.17036772      16.99513815       10      -0.00086589       0.00202415       0.01316092
C        2.47603394       2.87504073      16.98607802       10      -0.00051383       0.00123235       0.00348671
C        0.05391860       4.27723882      16.95227813       10      -0.00274280       0.00037207      -0.00223816
C        1.26143076       4.97392013      16.96394808       10      -0.00242920       0.00219300      -0.01556538
C       -1.16119365       6.38519663      16.99513739       10       0.00005239      -0.00173466      -0.01605872
C        0.05112341       7.07622571      16.98607812       10       0.00000398       0.00010797      -0.03401511
C       -2.37379580       8.47752557      17.00555989       10      -0.00093306      -0.00338324       0.00801275
C       -1.16235991       9.17399347      17.00453466       10      -0.00103296      -0.00175872      -0.01626147
C        4.89492124       0.07515985      17.00555968       10      -0.00082634       0.00008771       0.01104833
C        6.10601959       0.77455548      17.00352617       10      -0.00029677       0.00092105      -0.00246320
C        3.68577312       2.17452925      16.99324487       10       0.00026564       0.00132704      -0.00550295
C        4.89572410       2.87544858      16.98607802       10       0.00215724      -0.00170625      -0.00086048
C        2.47458016       4.27349795      16.97219452       10      -0.00183444       0.00100956      -0.00038081
C        3.68626784       4.97508114      16.96940666       10       0.00086626      -0.00125776      -0.01566844
C        1.26130543       6.37498334      16.97219442       10       0.00018545       0.00249937      -0.01461498
C        2.47444865       7.07408692      16.96940655       10      -0.00005793       0.00225735      -0.01582718
C        0.04917455       8.47384350      16.99324500       10       0.00016004       0.00010684      -0.01056301
C        1.26079907       9.17066474      16.98607787       10      -0.00049556       0.00185168       0.00089061
C        7.31164318       0.07007310      16.99513794       10      -0.00105421       0.00153025      -0.00746469
C        8.52636338       0.77307150      16.97840582       10      -0.00107386      -0.00044556       0.04066620
C        6.10080171       2.17077125      16.99513815       10       0.00222452       0.00022760      -0.02411694
C        7.31674610       2.87238672      16.97840601       10       0.00135893       0.00038073       0.01364014
C        4.89784973       4.27377466      16.97219452       10       0.00263487      -0.00205467      -0.03647291
C        6.11120410       4.97408127      16.96394808       10       0.00182430      -0.00045092      -0.02196591
C        3.68631705       6.37448708      16.96632866       10      -0.00065496       0.00019496      -0.01693757
C        4.89808725       7.07414199      16.96940655       10      -0.00082295       0.00057213      -0.00237701
C        2.47264551       8.47394218      16.97219425       10      -0.00103207       0.00130952       0.01091165
C        3.68633354       9.17407256      16.96394767       10      -0.00049951      -0.00214776      -0.01084998
C        9.74634165       0.07209974      16.95227808       10      -0.00238954      -0.00278267      -0.02228130
C       10.96567029       0.77372302      16.97840582       10      -0.00308438      -0.00184055       0.03692680
C        8.50303092       2.15873195      16.97076727       10      -0.00055012      -0.00042038       0.36427569
C        9.74451942       2.87366077      16.72640801       10      -0.00226425       0.00006901      -1.74939383
C        7.31880526       4.27789693      16.95227813       10       0.00140401      -0.00009140      -0.04052707
C        8.53445789       4.98240272      16.97840345       10      -0.00101414      -0.00049111      -0.00331768
C        6.11107031       6.37515769      16.97219442       10      -0.00092591       0.00000773      -0.01173468
C        7.32116182       7.07658639      16.98607812       10      -0.00071231      -0.00089127      -0.00276742
C        4.89972610       8.47413936      16.97219425       10       0.00117734       0.00049912       0.02030455
C        6.11129529       9.17119374      16.98607787       10       0.00131171       0.00041955       0.01556300
O        9.74361955       2.96552975      15.18285345       11      -0.00147512       0.00523825       0.00237616
H        9.67086199       2.07719923      14.78120527       12      -0.00070744      -0.00202962      -0.00053245
