132
Lattice="12.12 0.0 0.0 -6.06 10.496227893867395 0.0 0.0 0.0 40.0" Properties=species:S:1:pos:R:3:tags:I:1:forces:R:3 energy=-1210.5418610685479 stress="0.0028823854283714636 2.2233622766763894e-06 1.0833039507841588e-06 2.2233622766763894e-06 0.002874579219072468 -8.426479278754871e-07 1.0833039507841588e-06 -8.426479278754871e-07 0.002401546635237244" pbc="T T F"
C        0.00100056       0.00372237      10.00461028        2      -0.00013973       0.00170876      -0.00127780
Ti       0.00070353       1.75479546       8.71747438        0      -0.00056610      -0.00002815       0.00051497
Ti       1.51634737       0.87960053      11.29699934        0       0.00005988      -0.00068715       0.00093669
O        0.00097551       1.75101288      12.23008024        3       0.00208189       0.00001668       0.09583549
O        1.51293949       0.88101343       7.77661969        1       0.00075119      -0.00056742       0.00014428
C       -1.51549944       2.62992525      10.01445468        2       0.00027153       0.00025047      -0.00100066
Ti      -1.51519810       4.37901709       8.72189579        0      -0.00003504      -0.00068533      -0.00040120
Ti      -0.00171768       3.50262819      11.30976218        0       0.00165719       0.00000007       0.00155704
O       -1.51149386       4.38559640      12.23008024        3      -0.00071016       0.00173982      -0.00992619
O       -0.00223268       3.50355434       7.78121508        1       0.00219281       0.00158645      -0.00161863
C       -3.02966859       5.25385632      10.01014290        2      -0.00041126      -0.00091639      -0.00239668
Ti      -3.02971238       7.00322117       8.71602362        0      -0.00007425      -0.00023779       0.00162272
Ti      -1.51442529       6.12771271      11.30148763        0      -0.00065500      -0.00279471       0.00470513
O       -3.03073043       7.00535145      12.23008024        3      -0.00042673      -0.00163916       0.10347975
O       -1.51548782       6.12555629       7.77883710        1       0.00131882      -0.00036063       0.00048064
C       -4.54488586       7.87767901      10.00369252        2       0.00051466       0.00018265      -0.00097697
Ti      -4.54498886       9.62630435       8.71420579        0       0.00103925      -0.00022503      -0.00011238
Ti      -3.03002699       8.75231975      11.29577871        0       0.00165538      -0.00101279       0.00047877
O       -4.54438824       9.62558346      12.23008024        3       0.00023595      -0.00012825       0.10505408
O       -3.03037743       8.75071842       7.77464632        1       0.00054174       0.00112520       0.00067143
C        3.03023291       0.00471713      10.00286326        2       0.00209042      -0.00043742      -0.00180651
Ti       3.03002614       1.75462252       8.71486010        0       0.00077135      -0.00002322      -0.00066859
Ti       4.54414808       0.87991210      11.29630049        0       0.00220581      -0.00101115      -0.00063550
O        3.03065999       1.75415303      12.23008024        3      -0.00060213       0.00008335       0.10263032
O        4.54548692       0.88082487       7.77498103        1      -0.00000512      -0.00044975       0.00112928
C        1.51511586       2.62876449      10.00703066        2      -0.00092376       0.00002577      -0.00247100
Ti       1.51440423       4.37833957       8.71779636        0       0.00079159      -0.00017150      -0.00062607
Ti       3.03012556       3.50387512      11.29639965        0      -0.00121119      -0.00214197       0.00295009
O        1.51920371       4.38049501      12.23008024        3      -0.00086262      -0.00167787       0.11713457
O        3.02911681       3.50416800       7.77681778        1       0.00005676       0.00027348       0.00037396
C        0.00032707       5.25379439      10.00820240        2      -0.00114347      -0.00240585      -0.00146046
Ti      -0.00016350       7.00263121       8.71569979        0       0.00023398      -0.00038286       0.00188960
Ti       1.51563208       6.12828435      11.29728347        0      -0.00056561      -0.00064431       0.00246950
O        0.00240470       7.00575507      12.23008024        3      -0.00120264      -0.00371654       0.12243554
O        1.51439006       6.12714503       7.77677960        1      -0.00100419      -0.00142112       0.00170320
C       -1.51502909       7.87918129      10.00343207        2       0.00139038      -0.00009669      -0.00107368
Ti      -1.51525050       9.62650272       8.71341538        0       0.00086911      -0.00014245       0.00094162
Ti      -0.00024718       8.75239145      11.29620901        0       0.00110709       0.00038171       0.00224569
O       -1.51505494       9.62697743      12.23008024        3       0.00072025      -0.00071709       0.09707494
O        0.00018143       8.75139604       7.77489105        1       0.00216685      -0.00049819       0.00051930
C        6.05898594       0.00427913      10.00295430        2       0.00170767       0.00056408       0.00005846
Ti       6.05946457       1.75413952       8.71473510        0       0.00045920      -0.00027569       0.00130195
Ti       7.57115104       0.87675309      11.28978563        0       0.00383488       0.00229165       0.00880586
O        6.05818493       1.75288298      12.23008024        3       0.00188359       0.00176893       0.08967693
O        7.57702300       0.88160463       7.77741072        1       0.00076410      -0.00093159       0.00218806
C        4.54456253       2.62854604      10.00392295        2       0.00036006      -0.00076197      -0.00072309
Ti       4.54507314       4.37817819       8.71528258        0       0.00159840      -0.00091053      -0.00039921
Ti       6.06082189       3.50230648      11.29861624        0      -0.00044832       0.00133539       0.00476888
O        4.54391126       4.37901575      12.23008024        3      -0.00080253      -0.00072984       0.09663096
O        6.06217068       3.50392844       7.77777745        1      -0.00134508      -0.00029795       0.00159620
C        3.03001283       5.25301709      10.00440878        2       0.00042072      -0.00009666      -0.00180898
Ti       3.02997061       7.00199299       8.71481885        0      -0.00074540       0.00158325      -0.00181777
Ti       4.54506553       6.12727736      11.29741164        0      -0.00109678       0.00059378      -0.00079972
O        3.03105379       7.00241153      12.23008024        3      -0.00011840      -0.00038817       0.09943534
O        4.54529589       6.12741436       7.77611021        1       0.00064572      -0.00036174      -0.00090173
C        1.51491823       7.87733871      10.00351917        2      -0.00054947       0.00012913       0.00017772
Ti       1.51474687       9.62636108       8.71372066        0      -0.00031223       0.00046270       0.00162706
Ti       3.03023801       8.75206434      11.29666092        0       0.00116947       0.00024745       0.00217143
O        1.51517115       9.62553574      12.23008024        3       0.00324277       0.00349099       0.09723990
O        3.03015043       8.75224951       7.77544512        1       0.00041994       0.00187500       0.00275571
C        9.08980656       0.00442265      10.00545282        2       0.00213522       0.00262729       0.00143115
Ti       9.08954823       1.75505214       8.72139906        0       0.00101860       0.00064039      -0.00066877
Ti      10.61023083       0.87597202      11.28994781        0       0.00139875       0.00011781       0.00606417
O        9.09074155       1.74808507      12.23008024        3      -0.00226255      -0.00005395       0.29246778
O       10.60424258       0.88202546       7.77906358        1      -0.00061173      -0.00220902      -0.00018406
C        7.57589581       2.62888489      10.00995462        2       0.00194404       0.00159280      -0.00031065
Ti       7.57566712       4.37815514       8.71849182        0      -0.00175077       0.00170598      -0.00175467
Ti       9.09184377       3.50818260      11.31288505        0      -0.00458775       0.00406975      -0.00467947
O        7.56925386       4.38023735      12.23008024        3      -0.00092371       0.00197223       0.08121792
O        9.09142016       3.50321569       7.78174254        1      -0.00170461       0.00045934       0.00124662
C        6.06040750       5.25284751      10.00515051        2      -0.00092794       0.00021973      -0.00161788
Ti       6.06026999       7.00201930       8.71521760        0       0.00063231      -0.00063698      -0.00070606
Ti       7.57503513       6.12767986      11.29859740        0       0.00009879      -0.00108062       0.00372065
O        6.05944538       7.00206715      12.23008024        3      -0.00091578       0.00104165       0.10471384
O        7.57609687       6.12605070       7.77776513        1      -0.00031929       0.00116994       0.00031788
C        4.54535032       7.87703255      10.00385542        2       0.00000616      -0.00082681      -0.00170157
Ti       4.54486017       9.62642704       8.71346253        0       0.00099500      -0.00082969      -0.00021620
Ti       6.06018800       8.75034764      11.29661378        0       0.00126872       0.00142412       0.00263239
O        4.54469115       9.62249925      12.23008024        3       0.00125409       0.00181071       0.09359800
O        6.05957314       8.75179539       7.77540296        1      -0.00007130       0.00060932       0.00005728
C        0.05778510       0.06722429      16.70941220       10       0.00184731       0.00231388       0.00218603
C        1.26675622       0.76941425      16.71780043       10      -0.00092973      -0.00007723      -0.00393444
C       -1.14031042       2.15677478      16.68504153       10      -0.00202090       0.00130134       0.27010313
C        0.05347238       2.86743630      16.69268027       10       0.00087297      -0.00343113       0.03102115
C       -2.37294037       4.29408958      16.68503598       10      -0.00146383       0.00492418       0.48277029
C       -1.16174596       4.97265369      16.69267771       10       0.00287898       0.00348334       0.00799579
C       -3.58438179       6.37614958      16.70941165       10       0.00020697      -0.00047092      -0.04142164
C       -2.37211673       7.07217003      16.71780023       10       0.00261248       0.00159092      -0.00914943
C       -4.79515203       8.46872020      16.70751926       10      -0.00172766      -0.00273588      -0.00913805
C       -3.58342097       9.16827104      16.71880892       10      -0.00578708      -0.00260887      -0.03508495
C        2.47777040       0.07050296      16.71983394       10       0.00032163      -0.00487386      -0.02341872
C        3.68810016       0.77111251      16.71880883       10      -0.00041917      -0.00154782      -0.04447038
C        1.26880441       2.16784696      16.70941241       10       0.00389188      -0.00102125      -0.00780594
C        2.47694969       2.87021181      16.70035228       10       0.00182395      -0.00082659      -0.04568307
C        0.05192898       4.26960461      16.66655239       10      -0.00158201      -0.00407637       0.15041456
C        1.26271276       4.96867270      16.67822234       10      -0.00202647      -0.00233445      -0.08712345
C       -1.15999486       6.37525909      16.70941165       10       0.00168920       0.00303268      -0.03145103
C        0.05222876       7.06947403      16.70035238       10       0.00118747       0.00309004      -0.03332464
C       -2.37168420       8.46993603      16.71983415       10      -0.00204392       0.00001723      -0.02649371
C       -1.16000176       9.16788794      16.71880892       10      -0.00056520       0.00154565      -0.03959126
C        4.89852120       0.07018140      16.71983394       10       0.00045846      -0.00141779      -0.03193540
C        6.10931020       0.76951997      16.71780043       10      -0.00195089      -0.00035948       0.01009762
C        3.68773179       2.17024473      16.70751913       10       0.00341905      -0.00009050      -0.02232957
C        4.89879386       2.87010767      16.70035228       10       0.00075897       0.00181412      -0.02814221
C        2.47608218       4.26975350      16.68646878       10      -0.00084039      -0.00118358      -0.04588925
C        3.68819086       4.96927082      16.68368092       10      -0.00202735      -0.00096899      -0.00323344
C        1.26339811       6.36885514      16.68646868       10      -0.00353796      -0.00163857      -0.03749095
C        2.47557893       7.06841461      16.68368081       10      -0.00308616      -0.00281711      -0.01838315
C        0.05147784       8.46777231      16.70751926       10       0.00142181       0.00287134      -0.01120440
C        1.26296262       9.16635099      16.70035213       10       0.00169843       0.00198714      -0.03339077
C        7.31847879       0.06720061      16.70941220       10       0.00093495       0.00043682      -0.00754033
C        8.53234992       0.76972886      16.69268008       10      -0.00083393       0.00379031       0.01045643
C        6.10699157       2.16805842      16.70941241       10      -0.00076233      -0.00102588      -0.01941581
C        7.32307466       2.86752525      16.69268027       10      -0.00120190      -0.00324679       0.03439424
C        4.90010002       4.26951447      16.68646878       10      -0.00023697       0.00299812      -0.04495522
C        6.11393049       4.96851506      16.67822234       10      -0.00077037       0.00129624      -0.05543318
C        3.68788299       6.36885934      16.68060292       10      -0.00266041      -0.00169066      -0.05381840
C        4.90045470       7.06853346      16.68368081       10      -0.00297414      -0.00163254      -0.02221275
C        2.47549515       8.46788667      16.68646851       10       0.00162222      -0.00204129      -0.04099389
C        3.68808914       9.16903770      16.67822193       10      -0.00102020       0.00142101      -0.07175646
C        9.74805313       0.07082171      16.66655234       10       0.00009076      -0.00015097       0.13836951
C       10.96383416       0.76926395      16.69268008       10      -0.00383520       0.00120134       0.00557968
C        8.51591069       2.15756560      16.68504153       10       0.00168020       0.00190568       0.24208762
C        9.74636359       2.86694922      16.44068227       10       0.00200557       0.00424368      -2.12822750
C        7.32491358       4.26975398      16.66655239       10      -0.00359747      -0.00333562       0.12620894
C        8.53761507       4.97343551      16.69267771       10      -0.00185600      -0.00217714       0.04919805
C        6.11250752       6.36918462      16.68646868       10       0.00018200       0.00071278      -0.05049666
C        7.32345341       7.07055303      16.70035238       10       0.00223047      -0.00461136      -0.03765896
C        4.90055496       8.46806892      16.68646851       10       0.00194518      -0.00010365      -0.03482970
C        6.11320316       9.16676531      16.70035213       10      -0.00396546      -0.00042619      -0.04096030
O        9.80824306       2.96183274      14.87591988       11      -0.00467083       0.00058752       0.00017371
H        9.51230930       2.14722264      14.42273419       12       0.00066355       0.00079126      -0.00280636
