130
Lattice="12.12 0.0 0.0 -6.06 10.496227893867395 0.0 0.0 0.0 40.0" Properties=species:S:1:pos:R:3:tags:I:1:forces:R:3 energy=-1200.6548579471116 stress="0.0028141869124500615 -2.5554241032386684e-07 1.7057862485922382e-08 -2.5554241032386684e-07 0.00281476531920904 -1.310766770486127e-07 1.7057862485922382e-08 -1.310766770486127e-07 0.0022844858911056976" pbc="T T F"
C        0.00009583       0.00011272      10.00000997        2      -0.00006783       0.00007017       0.00053640
Ti      -0.00000982       1.74941580       8.69114248        0      -0.00009727       0.00009373       0.00002939
Ti       1.51463240       0.87445139      11.30784755        0      -0.00053095      -0.00026191      -0.00160138
O        0.00009586       1.74890725      12.23159545        3       0.00005533      -0.00013956      -0.00086304
O        1.51517732       0.87478768       7.76811256        1       0.00037601       0.00015709      -0.00091851
C       -1.51447587       2.62375324      10.00053794        2       0.00025744       0.00016887       0.00153644
Ti      -1.51499696       4.37342479       8.69199852        0      -0.00030015       0.00006299       0.00180850
Ti       0.00010942       3.49814944      11.30705530        0       0.00009960       0.00028792      -0.00080225
O       -1.51466198       4.37214221      12.23159545        3       0.00083822       0.00067794      -0.04838515
O       -0.00000945       3.49906980       7.76813786        1      -0.00025147       0.00036024      -0.00041321
C       -3.02953846       5.24838545      10.00135743        2       0.00028500       0.00009757       0.00263310
Ti      -3.03001503       6.99747302       8.69194897        0      -0.00014240      -0.00020791       0.00206283
Ti      -1.51475815       6.12296803      11.30655974        0       0.00035434       0.00016896      -0.00016737
O       -3.03113314       6.99850044      12.23159545        3       0.00121801       0.00030916      -0.04711607
O       -1.51498055       6.12280476       7.76806914        1      -0.00034089      -0.00012724      -0.00001003
C       -4.54496331       7.87271515      10.00053794        2       0.00016142       0.00008597       0.00165103
Ti      -4.54499051       9.62150893       8.69121155        0       0.00003903      -0.00020771       0.00026840
Ti      -3.03042207       8.74728593      11.30692526        0       0.00024340      -0.00008492      -0.00132145
O       -4.54528462       9.62175233      12.23159545        3       0.00016319       0.00056288      -0.01154801
O       -3.02975756       8.74667495       7.76806283        1       0.00010918      -0.00043011      -0.00044428
C        3.02949153      -0.00021287      10.00039183        2       0.00014320      -0.00005779       0.00118463
Ti       3.03000168       1.74938527       8.69215389        0       0.00030706       0.00013237       0.00145462
Ti       4.54415409       0.87410302      11.30760500        0      -0.00071327      -0.00018347      -0.00059384
O        3.02900247       1.74873243      12.23159545        3      -0.00075223      -0.00025487      -0.03367684
O        4.54523167       0.87477314       7.76838841        1       0.00056997       0.00046911       0.00036918
C        1.51453109       2.62368561      10.00042743        2      -0.00012890       0.00026243       0.00136981
Ti       1.51502345       4.37341422       8.69188133        0       0.00014596       0.00005795       0.00095019
Ti       3.02905319       3.49822818      11.30801232        0      -0.00094141      -0.00047453      -0.00011102
O        1.51492376       4.37203288      12.23159545        3      -0.00052297       0.00074587      -0.04524535
O        3.03018134       3.49893597       7.76849462        1       0.00081633       0.00031435       0.00061836
C        0.00006564       5.24840780      10.00100455        2       0.00029511       0.00015192       0.00132307
Ti      -0.00000165       6.99746457       8.69111953        0      -0.00007638      -0.00004770       0.00080960
Ti       1.51495907       6.12286135      11.30673331        0       0.00012960       0.00000050      -0.00008098
O        0.00009615       6.99754045      12.23159545        3       0.00034639       0.00019056      -0.02097732
O        1.51498935       6.12282426       7.76808659        1       0.00013717      -0.00001886      -0.00034617
C       -1.51468974       7.87217879      10.00095206        2       0.00029582      -0.00003841       0.00126349
Ti      -1.51500896       9.62157876       8.69163572        0       0.00002804       0.00006380       0.00109024
Ti       0.00000915       8.74694318      11.30682364        0       0.00021045      -0.00002143      -0.00005541
O       -1.51641730       9.62235347      12.23159545        3       0.00047876      -0.00091171      -0.04291377
O        0.00002341       8.74680685       7.76802606        1       0.00000297       0.00010747      -0.00046954
C        6.06002441      -0.00068204      10.00101373        2      -0.00012419      -0.00027193       0.00180339
Ti       6.05999114       1.74933871       8.69288606        0       0.00007730       0.00000855       0.00357604
Ti       7.57566239       0.87420433      11.30809384        0       0.00042861      -0.00021477      -0.00089821
O        6.05952686       1.74800446      12.23159545        3      -0.00005704      -0.00103157      -0.04626076
O        7.57483447       0.87478725       7.76845875        1      -0.00034901       0.00062182       0.00060608
C        4.54479670       2.62389635      10.00132525        2      -0.00036653      -0.00026391       0.00332421
Ti       4.54495277       4.37343541       8.69303815        0       0.00016039       0.00003321       0.00385963
Ti       6.05975958       3.49835842      11.31250603        0      -0.00043485      -0.00046222       0.00355622
O        4.54374951       4.37328942      12.23159545        3      -0.00107002       0.00015091      -0.04548593
O        6.06003523       3.49880150       7.76909974        1       0.00026672       0.00018343       0.00303477
C        3.02949012       5.24842647      10.00115824        2      -0.00025705       0.00000915       0.00215611
Ti       3.03003291       6.99747066       8.69181578        0       0.00020595      -0.00007424       0.00126821
Ti       4.54491392       6.12358041      11.30872052        0      -0.00004831       0.00008194       0.00045746
O        3.03149354       6.99828519      12.23159545        3      -0.00082743       0.00025153      -0.04311414
O        4.54500242       6.12259234       7.76855999        1       0.00042455      -0.00066650       0.00110827
C        1.51475546       7.87213148      10.00093291        2       0.00015407      -0.00006848       0.00123914
Ti       1.51502717       9.62156770       8.69163145        0       0.00002968       0.00020717       0.00113680
Ti       3.03049711       8.74720518      11.30679654        0      -0.00028598      -0.00023147      -0.00096461
O        1.51649471       9.62249411      12.23159545        3      -0.00027679      -0.00099645      -0.04176826
O        3.02979073       8.74670101       7.76806906        1      -0.00009072      -0.00011533      -0.00066225
C        9.09044132      -0.00022251      10.00050466        2      -0.00013076      -0.00029660       0.00120033
Ti       9.09003474       1.74936258       8.69236751        0      -0.00025480       0.00017918       0.00242450
Ti      10.60562682       0.87434278      11.30747438        0       0.00042678      -0.00018703      -0.00172408
O        9.09135975       1.74853748      12.23159545        3       0.00056664      -0.00052433      -0.03811434
O       10.60477291       0.87478325       7.76811692        1      -0.00058802       0.00035273      -0.00080408
C        7.57515799       2.62392176      10.00166791        2      -0.00007444      -0.00032867       0.00348205
Ti       7.57502178       4.37342670       8.69320475        0       0.00000780       0.00006021       0.00476215
Ti       9.09096935       3.49829214      11.30901629        0       0.00068373      -0.00043356       0.00012749
O        7.57567043       4.37347715      12.23159545        3       0.00041142       0.00004309      -0.04350381
O        9.08980472       3.49890501       7.76864083        1      -0.00081054       0.00038815       0.00136201
C        6.05999869       5.24824336      10.00184471        2      -0.00026146      -0.00001492       0.00392192
Ti       6.05999986       6.99752367       8.69250199        0       0.00006029      -0.00027807       0.00285734
Ti       7.57513746       6.12375494      11.30926699        0      -0.00018983       0.00027168       0.00090294
O        6.05999178       6.99938536      12.23159545        3      -0.00009601       0.00073999      -0.03962386
O        7.57500731       6.12254427       7.76864343        1      -0.00012052      -0.00080256       0.00157875
C        4.54499181       7.87265590      10.00054718        2      -0.00034887       0.00004324       0.00153137
Ti       4.54497965       9.62152527       8.69134296        0       0.00001721      -0.00007920       0.00037535
Ti       6.06001407       8.74768734      11.30731841        0      -0.00004927       0.00073817      -0.00200806
O        4.54529949       9.62172149      12.23159545        3      -0.00002299       0.00019862      -0.01836079
O        6.05996617       8.74657619       7.76811027        1       0.00006125      -0.00086832      -0.00072300
C        0.04485115       0.06749961      16.59475334       10       0.00237523      -0.00010369       0.01521968
C        1.25673030       0.76708643      16.59475334       10       0.00359275       0.00273349       0.01062421
C       -1.16674196       2.16639362      16.59475334       10       0.00023035       0.00035549       0.01423149
C        0.04509996       2.86619018      16.59475334       10      -0.00169875       0.00096516       0.00779439
C       -2.37812886       4.26586746      16.59475334       10       0.00110662      -0.00080584       0.00751845
C       -1.16732088       4.96518753      16.59475334       10       0.00115297       0.00131778       0.00475291
C       -3.59066720       6.36616538      16.59475334       10       0.00280775      -0.00081227       0.00724771
C       -2.37967569       7.06503244      16.59475334       10       0.00136562      -0.00081833       0.00546558
C       -4.80308198       8.46499092      16.59475334       10      -0.00187626      -0.00102297       0.01290742
C       -3.59123617       9.16442821      16.59475334       10       0.00091110      -0.00000700       0.00462179
C        2.46843639       0.06747444      16.59475334       10       0.00309182       0.00154261       0.01219854
C        3.68038757       0.76733441      16.59475334       10       0.00239713       0.00063475       0.00478367
C        1.25687089       2.16634191      16.59475334       10      -0.00089194       0.00182664       0.01329188
C        2.46881258       2.86613255      16.59475334       10      -0.00062542      -0.00020084       0.00636392
C        0.04511390       4.26535503      16.59475334       10      -0.00015072       0.00098356       0.01138589
C        1.25723182       4.96525310      16.59475334       10      -0.00001495      -0.00004829       0.00426184
C       -1.16676083       6.36534714      16.59475334       10       0.00054502       0.00176894       0.01387483
C        0.04490384       7.06497498      16.59475334       10      -0.00017437      -0.00101415       0.01424605
C       -2.37937718       8.46503236      16.59475334       10      -0.00017473      -0.00071546       0.01051268
C       -1.16726156       9.16478838      16.59475334       10      -0.00049655      -0.00151166       0.00625320
C        4.89229253       0.06695646      16.59475334       10       0.00150554       0.00110298       0.00794900
C        6.10485178       0.76776663      16.59475334       10       0.00132080       0.00136073       0.01127896
C        3.68017590       2.16628787      16.59475334       10      -0.00101408      -0.00052533      -0.00130245
C        4.89252749       2.86635475      16.59475334       10      -0.00028855      -0.00112180       0.01750899
C        2.46816241       4.26581170      16.59475334       10      -0.00012839      -0.00032689       0.00716229
C        3.68126845       4.96557673      16.59475334       10      -0.00004969       0.00025002       0.01580354
C        1.25674635       6.36528004      16.59475334       10       0.00019484       0.00106256       0.01320943
C        2.46952816       7.06501624      16.59475334       10       0.00086104       0.00056310       0.00732404
C        0.04503394       8.46448684      16.59475334       10      -0.00139413      -0.00138921       0.01334797
C        1.25737772       9.16478145      16.59475334       10      -0.00153591      -0.00102547       0.00830301
C        7.31737594       0.06682584      16.59475334       10       0.00047607       0.00161107       0.00826184
C        8.52937905       0.76740352      16.59475334       10       0.00022030       0.00083127       0.00522588
C        6.10488626       2.16609724      16.59475334       10       0.00015253       0.00101926       0.01915926
C        7.31739234       2.86643986      16.59475334       10      -0.00048979      -0.00172866       0.01891722
C        4.89233221       4.26625207      16.59475334       10      -0.00010861      -0.00004167       0.01995237
C        6.10497547       4.96622532      16.59475334       10       0.00009846      -0.00101396       0.01978629
C        3.68045962       6.36609161      16.59475334       10       0.00041060       0.00014792       0.00687883
C        4.89329023       7.06551106      16.59475334       10       0.00071221      -0.00183175       0.00771555
C        2.46963562       8.46495674      16.59475334       10      -0.00236961      -0.00052028       0.00965835
C        3.68150419       9.16453544      16.59475334       10      -0.00299849      -0.00135412      -0.00030017
C        9.74141201       0.06749764      16.59475334       10      -0.00084994       0.00022695       0.01144402
C       10.95297917       0.76714011      16.59475334       10       0.00194633       0.00122335       0.00917349
C        8.52982942       2.16619909      16.59475334       10      -0.00120345       0.00097255       0.00168708
C        9.74131505       2.86605503      16.59475334       10      -0.00268573       0.00094330       0.00893091
C        7.31754071       4.26633627      16.59475334       10      -0.00102089      -0.00124486       0.02085429
C        8.52880436       4.96564670      16.59475334       10      -0.00090921       0.00088872       0.02035578
C        6.10482922       6.36632495      16.59475334       10       0.00159039      -0.00100508       0.00474400
C        7.31663339       7.06549416      16.59475334       10      -0.00011561      -0.00029102       0.00971045
C        4.89334799       8.46511256      16.59475334       10      -0.00357077      -0.00262493       0.01122791
C        6.10511699       9.16443692      16.59475334       10      -0.00231674       0.00028899       0.00794110
