132
Lattice="12.12 0.0 0.0 -6.06 10.496227893867395 0.0 0.0 0.0 40.0" Properties=species:S:1:pos:R:3:tags:I:1:forces:R:3 energy=-1210.985602040771 stress="0.002884284998107491 1.3184757136767175e-06 -1.1771929158653256e-08 1.3184757136767175e-06 0.002869983400168483 6.723748685902426e-07 -1.1771929158653256e-08 6.723748685902426e-07 0.002629722462059539" pbc="T T F"
C        0.00064881       0.00247253      10.00426948        2       0.00053205       0.00154987       0.00085563
Ti       0.00249746       1.75332074       8.71855425        0      -0.00089152       0.00125337      -0.00354726
Ti       1.51422163       0.87951188      11.30695789        0       0.00181038      -0.00079707      -0.00482899
O        0.00120404       1.74815962      12.23008024        3       0.00083050       0.00060160      -0.07176698
O        1.51398053       0.87925080       7.77998572        1       0.00151297      -0.00153318       0.00068492
C       -1.51550916       2.62926298      10.01490198        2       0.00068623       0.00188574       0.00327477
Ti      -1.51238719       4.37685459       8.72184735        0       0.00157637       0.00019463       0.00265548
Ti      -0.00451569       3.50260750      11.32052814        0       0.00184659       0.00158862      -0.00367209
O       -1.50183656       4.39831554      12.23008024        3       0.00288906       0.00497014      -0.39890634
O       -0.00138999       3.50171416       7.78317599        1       0.00251710       0.00180428      -0.00186687
C       -3.02897077       5.24889175      10.01285382        2      -0.00054167      -0.00024089       0.00053469
Ti      -3.02832462       7.00222511       8.72083484        0       0.00223199       0.00058776      -0.00160472
Ti      -1.51187520       6.12476023      11.31315920        0       0.00147906       0.00050715      -0.00336821
O       -3.03118186       7.00600108      12.23008024        3      -0.00097849       0.00019152      -0.00524503
O       -1.51541047       6.12355201       7.78292597        1       0.00094213       0.00104916      -0.00092947
C       -4.54359350       7.87589420      10.00425667        2       0.00005299      -0.00061193       0.00185048
Ti      -4.54352999       9.62452878       8.71667220        0       0.00064679       0.00005144       0.00060842
Ti      -3.02985748       8.75183024      11.30360629        0      -0.00069319       0.00007484      -0.00386566
O       -4.54453126       9.62488022      12.23008024        3      -0.00214730      -0.00022026      -0.03783819
O       -3.02954074       8.74819011       7.77782821        1      -0.00077970       0.00098978       0.00123259
C        3.03110195       0.00286672      10.00223293        2       0.00004052      -0.00018237       0.00500097
Ti       3.03142293       1.75201975       8.71740545        0      -0.00135935       0.00121895       0.00112895
Ti       4.54380295       0.87813183      11.30511837        0       0.00236953       0.00164883      -0.00258243
O        3.02988314       1.75085864      12.23008024        3      -0.00233824       0.00062885      -0.01598952
O        4.54651271       0.87944588       7.77805687        1       0.00056499      -0.00065331       0.00177156
C        1.51551499       2.62697861      10.00753178        2      -0.00108809      -0.00110774       0.00112572
Ti       1.51578857       4.37626479       8.72063520        0       0.00110009       0.00028528      -0.00095507
Ti       3.03008974       3.50121296      11.30493331        0       0.00120168       0.00000998      -0.00329806
O        1.52050742       4.37800289      12.23008024        3      -0.00132178      -0.00027682      -0.00793724
O        3.03028370       3.50254182       7.78063596        1      -0.00049705      -0.00034753       0.00032911
C        0.00212421       5.25256435      10.00762713        2       0.00005226      -0.00087474      -0.00124311
Ti       0.00092201       7.00090841       8.71784928        0      -0.00186852      -0.00097203       0.00006293
Ti       1.51783339       6.12649721      11.30338528        0      -0.00139099       0.00099493      -0.00192322
O        0.00450114       7.00451025      12.23008024        3       0.00003164       0.00015287      -0.01143523
O        1.51578389       6.12483861       7.77988246        1      -0.00211748      -0.00145300       0.00142228
C       -1.51427981       7.87811139      10.00332012        2      -0.00018719       0.00176854       0.00069967
Ti      -1.51425455       9.62465030       8.71435823        0       0.00048623      -0.00106480       0.00632773
Ti       0.00001464       8.74978303      11.30355107        0       0.00083604       0.00308047      -0.00245371
O       -1.51496984       9.62530982      12.23008024        3      -0.00105606       0.00011543      -0.03909342
O        0.00115090       8.74883940       7.77751642        1       0.00024287       0.00151932       0.00005087
C        6.05947802       0.00188317      10.00229808        2       0.00124886       0.00186656       0.00221949
Ti       6.06069996       1.75226196       8.71750935        0       0.00093748      -0.00275354      -0.00093061
Ti       7.56777996       0.87017891      11.29139587        0       0.00570649       0.00301135      -0.00153422
O        6.05868383       1.75028193      12.23008024        3       0.00302170       0.00130499      -0.03081487
O        7.57772862       0.88049705       7.77984399        1       0.00035417      -0.00126811      -0.00005162
C        4.54565992       2.62635371      10.00481660        2       0.00120558      -0.00118596       0.00165290
Ti       4.54562176       4.37642231       8.71802442        0      -0.00018155      -0.00158084       0.00029791
Ti       6.06192349       3.50057973      11.30741272        0      -0.00119926      -0.00150973      -0.00260098
O        4.54421074       4.37655704      12.23008024        3       0.00116597      -0.00166229      -0.02833505
O        6.06332908       3.50195935       7.78069156        1      -0.00049469       0.00057075       0.00021385
C        3.03119432       5.25076236      10.00516959        2       0.00099603       0.00138700       0.00343622
Ti       3.03130300       6.99982439       8.71578147        0      -0.00089232      -0.00074710       0.00201628
Ti       4.54554511       6.12513533      11.30432612        0      -0.00047172      -0.00139966      -0.00216254
O        3.03239437       7.00144007      12.23008024        3       0.00103930      -0.00011642      -0.03472789
O        4.54676743       6.12510978       7.77929646        1       0.00050584      -0.00076055       0.00066482
C        1.51609470       7.87497631      10.00336038        2      -0.00021106       0.00035982       0.00439641
Ti       1.51680951       9.62414865       8.71441716        0      -0.00246482       0.00256542       0.00096404
Ti       3.03145537       8.74972842      11.30522057        0      -0.00043034       0.00005151      -0.00170821
O        1.51646146       9.62132646      12.23008024        3       0.00308204       0.00440695      -0.04416050
O        3.03125826       8.74936498       7.77719877        1       0.00051347       0.00190150       0.00017608
C        9.09107514       0.00037549      10.00141797        2       0.00232123       0.00321628       0.00152673
Ti       9.09094446       1.75293341       8.72158458        0       0.00184464       0.00093159       0.00027797
Ti      10.61330925       0.86923260      11.28500222        0       0.00001043       0.00241541      -0.00444823
O        9.08246146       1.72503613      12.23008024        3      -0.00142916      -0.00069959       0.11590130
O       10.60567369       0.88106763       7.78020542        1      -0.00072613      -0.00306940      -0.00263834
C        7.57914301       2.62891837      10.00991834        2       0.00351932       0.00324579       0.00321569
Ti       7.57544931       4.37635838       8.71551639        0      -0.00181683       0.00116948       0.00419233
Ti       9.08912158       3.51763296      11.29025975        0       0.00499886      -0.00193446       0.00109092
O        7.57049840       4.37775291      12.23008024        3       0.00222783       0.00065904      -0.04876315
O        9.09247521       3.50190053       7.78015313        1      -0.00088568       0.00079818       0.00357427
C        6.06129441       5.25119591      10.00599298        2       0.00054089      -0.00059845       0.00293630
Ti       6.06168773       7.00094345       8.71810933        0      -0.00127191      -0.00142983       0.00132055
Ti       7.57415487       6.12502639      11.31041761        0       0.00075460       0.00218725      -0.00266785
O        6.06014494       7.00259717      12.23008024        3      -0.00038691      -0.00022821      -0.00425212
O        7.57814058       6.12431935       7.78154837        1      -0.00144797      -0.00014221      -0.00027908
C        4.54658525       7.87494261      10.00366555        2      -0.00117906      -0.00233763       0.00357065
Ti       4.54533330       9.62424213       8.71310509        0       0.00065716      -0.00085993      -0.00160198
Ti       6.06039322       8.74974379      11.30628994        0      -0.00086949      -0.00210396      -0.00387272
O        4.54550389       9.62041007      12.23008024        3      -0.00040394       0.00369655      -0.05329790
O        6.06123343       8.74970489       7.77860850        1      -0.00091630      -0.00004166      -0.00119078
C        0.05789867       0.06878926      16.14099115       10      -0.00080784      -0.00574681      -0.02872324
C        1.26656267       0.77145311      16.14937938       10       0.00272424      -0.00280292       0.05363330
C       -1.13834339       2.15685629      16.11662048       10       0.00013507      -0.00517497       0.47401777
C        0.05371079       2.86942951      16.12425922       10       0.00091250      -0.00052270       0.07820317
C       -2.37485345       4.29912815      16.11661493       10      -0.00070783      -0.00288453       0.65006883
C       -1.16302336       4.97514121      16.12425666       10      -0.00102604       0.00057671       0.02847342
C       -3.58542123       6.37903804      16.14099060       10      -0.00022034       0.00015899       0.00357474
C       -2.37297035       7.07461235      16.14937918       10      -0.00033145       0.00294613       0.03051007
C       -4.79600986       8.47049252      16.13909821       10      -0.00138841      -0.00174310       0.01121844
C       -3.58420771       9.17018860      16.15038787       10       0.00304103       0.00033922       0.01260681
C        2.47741488       0.07248843      16.15141289       10       0.00285860      -0.00002022      -0.01331165
C        3.68765416       0.77323246      16.15038778       10       0.00038375      -0.00156608       0.00744509
C        1.26920385       2.16976595      16.14099136       10       0.00066687      -0.00231541      -0.01249465
C        2.47668294       2.87246382      16.13193123       10      -0.00013815      -0.00170187       0.01059074
C        0.05074007       4.27171708      16.09813134       10      -0.00012774       0.00246618       0.20287174
C        1.26131549       4.97082175      16.10980129       10       0.00294197      -0.00243184      -0.05055659
C       -1.16108593       6.37794533      16.14099060       10       0.00348769       0.00162704       0.02561602
C        0.05111276       7.07171801      16.13193133       10       0.00353676       0.00135313      -0.01482579
C       -2.37242942       8.47228914      16.15141310       10       0.00124546      -0.00124368       0.02908701
C       -1.16054743       9.17015965      16.15038787       10      -0.00343999      -0.00025339      -0.00439493
C        4.89792929       0.07247004      16.15141289       10       0.00034074       0.00054666       0.01853554
C        6.10869592       0.77177891      16.14937938       10      -0.00197263      -0.00302562       0.03185066
C        3.68763794       2.17262161      16.13909808       10       0.00026338       0.00118522       0.01940469
C        4.89839860       2.87265306      16.13193123       10      -0.00219347      -0.00219188      -0.00352430
C        2.47490859       4.27179428      16.11804773       10       0.00281140       0.00106915       0.00074842
C        3.68695800       4.97133854      16.11525987       10      -0.00037972       0.00019387       0.02805173
C        1.26187739       6.37082288      16.11804763       10       0.00391095       0.00099756       0.02221005
C        2.47415122       7.07030807      16.11525976       10       0.00138664       0.00049596       0.01954653
C        0.05078827       8.47005232      16.13909821       10       0.00058503       0.00027667       0.05412035
C        1.26232769       9.16876127      16.13193108       10      -0.00316240       0.00017626      -0.00660695
C        7.31762149       0.06955768      16.14099115       10      -0.00176666      -0.00280655       0.03022845
C        8.53156363       0.77221078      16.12425903       10      -0.00267292      -0.00318290       0.04849850
C        6.10605081       2.17008817      16.14099136       10      -0.00426961      -0.00189499       0.00721929
C        7.32242312       2.86967015      16.12425922       10      -0.00555330       0.00092267       0.03522068
C        4.89925773       4.27201355      16.11804773       10      -0.00146396      -0.00001276      -0.00009429
C        6.11301083       4.97100377      16.10980129       10      -0.00270341      -0.00153491      -0.04575724
C        3.68664662       6.37078229      16.11218187       10       0.00040391       0.00351787      -0.00066396
C        4.89915658       7.07062416      16.11525976       10      -0.00053104       0.00042906       0.02708372
C        2.47456900       8.46991311      16.11804746       10      -0.00320942       0.00106786       0.02101130
C        3.68689015       9.17109060      16.10980088       10      -0.00118476      -0.00185185      -0.02180666
C        9.74712771       0.07288448      16.09813129       10      -0.00328516      -0.00423163       0.14602348
C       10.96356297       0.77048583      16.12425903       10       0.00202989      -0.00291541       0.07026844
C        8.51300296       2.15880506      16.11662048       10      -0.00543664      -0.00348360       0.36622973
C        9.74528512       2.86841389      15.87226122       10      -0.00313564      -0.00273617      -1.90497607
C        7.32370872       4.27228623      16.09813134       10      -0.00265100       0.00183763       0.16607610
C        8.53644736       4.97624727      16.12425666       10      -0.00197689       0.00210880       0.07620262
C        6.11141651       6.37138118      16.11804763       10      -0.00231758      -0.00081246      -0.00475301
C        7.32254070       7.07252365      16.13193133       10      -0.00367856       0.00245406       0.01324490
C        4.89948365       8.47005517      16.11804746       10      -0.00168447      -0.00145249      -0.01051260
C        6.11230467       9.16853133      16.13193108       10       0.00189628       0.00025324       0.01836970
O        9.84409278       2.94942751      14.36929908       11       0.00816662      -0.00016424      -0.00469938
H        9.45390573       2.20554233      13.83958312       12      -0.00650793       0.00600147       0.00076720
