130
Lattice="12.12 0.0 0.0 -6.06 10.496227893867395 0.0 0.0 0.0 40.0" Properties=species:S:1:pos:R:3:tags:I:1:forces:R:3 energy=-1200.7486288313569 stress="0.0028269856076166733 -9.829157810023492e-08 9.46400569529456e-09 -9.829157810023492e-08 0.002827182577281976 -6.148419796975296e-08 9.46400569529456e-09 -6.148419796975296e-08 0.002126208913968515" pbc="T T F"
C       -0.00004068      -0.00006024      10.00200421        2      -0.00004291       0.00005039       0.00247207
Ti      -0.00000417       1.74937761       8.69028721        0      -0.00000181      -0.00023288       0.00135160
Ti       1.51539149       0.87482563      11.30529589        0       0.00041368       0.00035960      -0.00104370
O       -0.00001670       1.74939719      12.23159545        3      -0.00008823       0.00031449       0.04770489
O        1.51487168       0.87464159       7.76873564        1      -0.00030565      -0.00011609       0.00059926
C       -1.51511594       2.62421467      10.00166161        2      -0.00030908       0.00015166       0.00219505
Ti      -1.51508291       4.37344959       8.69000824        0       0.00008103      -0.00010182      -0.00046012
Ti      -0.00003558       3.49908981      11.30493609        0       0.00007111       0.00022446      -0.00159747
O       -1.51570058       4.37512106      12.23159545        3      -0.00005632      -0.00019621       0.03324204
O        0.00000988       3.49852209       7.76859710        1      -0.00006036      -0.00061230      -0.00032238
C       -3.03011016       5.24807568      10.00083840        2      -0.00000987      -0.00000199       0.00150304
Ti      -3.03004154       6.99741655       8.69000871        0      -0.00006992       0.00005959      -0.00070698
Ti      -1.51477413       6.12303729      11.30484842        0       0.00041289       0.00013858      -0.00289595
O       -3.02918534       6.99634567      12.23159545        3      -0.00007490      -0.00001377       0.03164999
O       -1.51503586       6.12275172       7.76856662        1      -0.00015064      -0.00012045      -0.00132731
C       -4.54497568       7.87198036      10.00151977        2       0.00001712      -0.00027018       0.00201354
Ti      -4.54499674       9.62151561       8.69022747        0      -0.00028490       0.00015688       0.00109471
Ti      -3.02971702       8.74665914      11.30486729        0      -0.00000833      -0.00012116      -0.00198030
O       -4.54468953       9.62122139      12.23159545        3       0.00017000      -0.00013589       0.05564500
O       -3.03018962       8.74697627       7.76855992        1      -0.00057654       0.00027585      -0.00056307
C        3.03019362      -0.00000526      10.00157188        2       0.00013252       0.00003860       0.00214841
Ti       3.03015285       1.74945362       8.69001964        0       0.00008157       0.00009593       0.00000905
Ti       4.54531910       0.87450696      11.30472851        0       0.00010532      -0.00025961      -0.00240274
O        3.03229232       1.75062576      12.23159545        3       0.00010471      -0.00011740       0.06599764
O        4.54479827       0.87467094       7.76845429        1      -0.00041624      -0.00007945      -0.00122246
C        1.51508607       2.62424227      10.00168883        2       0.00021320       0.00009681       0.00219035
Ti       1.51505480       4.37344079       8.69003226        0      -0.00004698      -0.00013772      -0.00054689
Ti       3.03006443       3.49910487      11.30475874        0      -0.00014018       0.00032021      -0.00218186
O        1.51546084       4.37526867      12.23159545        3       0.00015975       0.00014235       0.03653737
O        3.02984918       3.49859567       7.76848788        1      -0.00030381      -0.00030852      -0.00117141
C       -0.00002188       5.24807343      10.00104840        2       0.00006292       0.00024999       0.00142905
Ti      -0.00000237       6.99749550       8.69020297        0       0.00003228      -0.00005609      -0.00082141
Ti       1.51488891       6.12302078      11.30483332        0       0.00006586       0.00011115      -0.00271820
O        0.00030822       6.99796674      12.23159545        3       0.00018592      -0.00001190       0.00227555
O        1.51501386       6.12272975       7.76857700        1       0.00007802      -0.00015928      -0.00142392
C       -1.51506646       7.87219560      10.00091124        2       0.00015331      -0.00008100       0.00148621
Ti      -1.51496858       9.62158080       8.69000343        0      -0.00016996       0.00000463      -0.00080146
Ti       0.00008221       8.74675154      11.30484127        0       0.00005694      -0.00011376      -0.00294654
O       -1.51340151       9.62088355      12.23159545        3      -0.00018722       0.00005737       0.03298138
O       -0.00002689       8.74688675       7.76855378        1      -0.00005390       0.00013517      -0.00144606
C        6.06001965       0.00010402      10.00078559        2       0.00002834      -0.00018672       0.00133587
Ti       6.06000862       1.74947758       8.68993414        0       0.00002136       0.00008704      -0.00114334
Ti       7.57478172       0.87450939      11.30470323        0      -0.00032320      -0.00023531      -0.00276276
O        6.06023071       1.75007956      12.23159545        3      -0.00011701      -0.00013956       0.02741593
O        7.57516406       0.87468515       7.76842471        1       0.00037572      -0.00003571      -0.00134721
C        4.54513076       2.62411911      10.00077850        2       0.00019483       0.00005128       0.00104912
Ti       4.54510834       4.37338816       8.68995450        0       0.00007068      -0.00002784      -0.00109934
Ti       6.05998831       3.49862046      11.30470373        0      -0.00037053      -0.00017708      -0.00323814
O        4.54611048       4.37321809      12.23159545        3      -0.00013662      -0.00002730       0.02278924
O        6.05998719       3.49873283       7.76836886        1       0.00001336      -0.00002987      -0.00201832
C        3.03011358       5.24808438      10.00085346        2       0.00005870       0.00003078       0.00130307
Ti       3.03003755       6.99742766       8.68997812        0       0.00007591       0.00008032      -0.00086065
Ti       4.54480601       6.12264091      11.30471026        0      -0.00028605      -0.00017757      -0.00263784
O        3.02922153       6.99668856      12.23159545        3       0.00025484       0.00009106       0.02969255
O        4.54505195       6.12292389       7.76844825        1       0.00011540       0.00027158      -0.00146562
C        1.51506098       7.87220011      10.00077516        2       0.00003075       0.00001508       0.00133757
Ti       1.51496990       9.62159109       8.68996736        0       0.00016993      -0.00002988      -0.00087457
Ti       3.02970083       8.74665947      11.30477389        0      -0.00001453      -0.00020744      -0.00212015
O        1.51381386       9.62100679      12.23159545        3       0.00021850       0.00004258       0.02773497
O        3.03019276       8.74695979       7.76852954        1       0.00056446       0.00032062      -0.00079184
C        9.08984781       0.00005234      10.00141178        2      -0.00024253       0.00007730       0.00196776
Ti       9.08984838       1.74945665       8.68997931        0      -0.00009283       0.00008784      -0.00012570
Ti      10.60459656       0.87477018      11.30520963        0      -0.00042925       0.00022551      -0.00114472
O        9.08759957       1.75061395      12.23159545        3       0.00008915      -0.00004430       0.05799921
O       10.60517407       0.87465349       7.76867516        1       0.00032862      -0.00001239       0.00047303
C        7.57490452       2.62412713      10.00069215        2      -0.00031602       0.00007715       0.00100634
Ti       7.57491745       4.37339131       8.68996091        0      -0.00008272      -0.00005365      -0.00106295
Ti       9.08991757       3.49904056      11.30473324        0      -0.00006321       0.00038783      -0.00238711
O        7.57385417       4.37294617      12.23159545        3      -0.00015089      -0.00003229       0.01677734
O        9.09015727       3.49862134       7.76844076        1       0.00035079      -0.00020968      -0.00111493
C        6.06002203       5.24795887      10.00065239        2      -0.00003531      -0.00024908       0.00093001
Ti       6.06000810       6.99730698       8.68999544        0      -0.00001976      -0.00015753      -0.00029423
Ti       7.57518305       6.12259298      11.30471632        0       0.00017609      -0.00019666      -0.00255996
O        6.05996172       6.99481246      12.23159545        3       0.00015462       0.00015235       0.05253936
O        7.57496865       6.12295713       7.76843503        1       0.00000083       0.00032712      -0.00130074
C        4.54499692       7.87198556      10.00140888        2      -0.00003526      -0.00021279       0.00184078
Ti       4.54499825       9.62153171       8.69016362        0       0.00030070       0.00017624       0.00087326
Ti       6.05990680       8.74647391      11.30517574        0       0.00000744      -0.00045406      -0.00131842
O        4.54417196       9.62102055      12.23159545        3      -0.00004078      -0.00031174       0.06365082
O        6.06003155       8.74702407       7.76865698        1       0.00008859       0.00031221       0.00025117
C        0.04482225       0.06754044      17.02106913       10       0.00574844       0.00141064       0.01345609
C        1.25659875       0.76707253      17.02106913       10       0.00280134       0.00168340      -0.00269896
C       -1.16681948       2.16648760      17.02106913       10      -0.00052673       0.00007544       0.00082978
C        0.04518015       2.86613169      17.02106913       10      -0.00238421       0.00116890      -0.00774835
C       -2.37915033       4.26599032      17.02106913       10       0.00127164      -0.00121429      -0.00639015
C       -1.16698037       4.96575720      17.02106913       10       0.00072792       0.00109390      -0.00862986
C       -3.59128707       6.36530031      17.02106913       10       0.00326388      -0.00109425      -0.01094323
C       -2.37909896       7.06519476      17.02106913       10       0.00180129      -0.00124940      -0.01226211
C       -4.80308162       8.46473014      17.02106913       10       0.00068182      -0.00100506       0.00053593
C       -3.59113626       9.16448354      17.02106913       10      -0.00211154      -0.00179699      -0.00814709
C        2.46857792       0.06757630      17.02106913       10       0.00415789       0.00219787       0.00246427
C        3.68077024       0.76729448      17.02106913       10       0.00402604       0.00080733      -0.00351356
C        1.25706699       2.16639335      17.02106913       10      -0.00112697       0.00251768       0.00245336
C        2.46910138       2.86651243      17.02106913       10      -0.00105404      -0.00037423      -0.00456404
C        0.04501141       4.26593477      17.02106913       10       0.00018115       0.00107019      -0.00548298
C        1.25695547       4.96584529      17.02106913       10       0.00045608      -0.00001630      -0.01108917
C       -1.16715958       6.36530846      17.02106913       10       0.00169611       0.00184785      -0.01499289
C        0.04483625       7.06504639      17.02106913       10       0.00103443      -0.00140057      -0.05070733
C       -2.37894138       8.46461407      17.02106913       10      -0.00052261      -0.00072638      -0.00643054
C       -1.16688196       9.16433299      17.02106913       10      -0.00069675      -0.00164443      -0.01566321
C        4.89290178       0.06769170      17.02106913       10       0.00252698       0.00062717      -0.00580024
C        6.10491685       0.76724145      17.02106913       10       0.00198594       0.00185912      -0.01990167
C        3.68113306       2.16681702      17.02106913       10      -0.00148575      -0.00022367      -0.01850432
C        4.89329093       2.86663494      17.02106913       10      -0.00130361      -0.00061699      -0.01323364
C        2.46913030       4.26604457      17.02106913       10       0.00001781      -0.00063596      -0.00416151
C        3.68103854       4.96583260      17.02106913       10       0.00006246       0.00094490      -0.01828899
C        1.25687810       6.36541051      17.02106913       10       0.00142273       0.00078862      -0.01359449
C        2.46887776       7.06512879      17.02106913       10       0.00159317       0.00048530      -0.01785833
C        0.04517497       8.46456221      17.02106913       10      -0.00202289      -0.00191182      -0.01254520
C        1.25721704       9.16424063      17.02106913       10      -0.00259755      -0.00067648      -0.01940467
C        7.31686369       0.06761392      17.02106913       10       0.00065200       0.00155448      -0.01036936
C        8.52889216       0.76725722      17.02106913       10       0.00047759       0.00071762      -0.00358767
C        6.10508880       2.16682450      17.02106913       10      -0.00098323       0.00140441      -0.03801575
C        7.31691286       2.86670143      17.02106913       10      -0.00172039      -0.00175141      -0.01312510
C        4.89303436       4.26600703      17.02106913       10      -0.00043538       0.00017461      -0.04202121
C        6.10499147       4.96561762      17.02106913       10      -0.00019567      -0.00103894      -0.01224562
C        3.68099397       6.36521106      17.02106913       10       0.00112651       0.00065150      -0.01314056
C        4.89286868       7.06510238      17.02106913       10       0.00119342      -0.00247108      -0.00489594
C        2.46922858       8.46455168      17.02106913       10      -0.00400594      -0.00065751      -0.00783986
C        3.68142077       9.16446123      17.02106913       10      -0.00410322      -0.00221958      -0.01024303
C        9.74104265       0.06758037      17.02106913       10       0.00205368       0.00171309       0.00178212
C       10.95313078       0.76712183      17.02106913       10      -0.00072378       0.00082662      -0.00365617
C        8.52898863       2.16680074      17.02106913       10      -0.00190876       0.00128323      -0.01985580
C        9.74111166       2.86647583      17.02106913       10      -0.00337285       0.00107311      -0.00605662
C        7.31708751       4.26611851      17.02106913       10      -0.00075489      -0.00102553      -0.04917021
C        8.52898761       4.96584387      17.02106913       10      -0.00129365       0.00121881      -0.01846943
C        6.10482746       6.36518481      17.02106913       10       0.00231451      -0.00121122      -0.02281368
C        7.31685971       7.06503850      17.02106913       10       0.00041133      -0.00020703      -0.00627669
C        4.89331754       8.46471090      17.02106913       10      -0.00278369      -0.00176697       0.00159641
C        6.10520493       9.16455343      17.02106913       10      -0.00574560      -0.00160139      -0.00402355
