131
Lattice="12.12 0.0 0.0 -6.06 10.496227893867395 0.0 0.0 0.0 40.0" Properties=species:S:1:pos:R:3:tags:I:1:forces:R:3 energy=-1203.958890446656 stress="0.0028763735277896555 5.7424212264147344e-08 -1.4463466181140428e-06 5.7424212264147344e-08 0.0028760389321771593 9.304821233700045e-07 -1.4463466181140428e-06 9.304821233700045e-07 0.001920338701218812" pbc="T T F"
C       -0.00046617       0.00028332      10.00124961        2       0.00013394      -0.00006942      -0.00008038
Ti       0.00002774       1.74935990       8.71028185        0       0.00000283       0.00023564       0.00062553
Ti       1.51464730       0.87575511      11.29149770        0       0.00026546      -0.00044050       0.00085745
O       -0.00121266       1.74957406      12.23008024        3       0.00018272      -0.00007103       0.08324267
O        1.51552161       0.87374715       7.77259083        1      -0.00056149       0.00066820       0.00014983
C       -1.51522624       2.62414491      10.00103741        2      -0.00009860       0.00014698       0.00008307
Ti      -1.51500466       4.37390615       8.71171397        0      -0.00016781       0.00016975       0.00014784
Ti      -0.00002051       3.49898256      11.29150738        0      -0.00006216       0.00012593      -0.00020624
O       -1.51468576       4.37070789      12.23008024        3      -0.00011679      -0.00002826       0.07390834
O       -0.00051046       3.49907508       7.77122807        1       0.00000553      -0.00008096       0.00047300
C       -3.03015136       5.24796885      10.00320976        2      -0.00020990       0.00023641      -0.00082320
Ti      -3.03010249       6.99771419       8.71586834        0      -0.00021451       0.00008371      -0.00220715
Ti      -1.51545176       6.12381026      11.29814926        0      -0.00055260       0.00042908       0.00053834
O       -3.03100484       6.99426697      12.23008024        3       0.00007697      -0.00019426       0.05338767
O       -1.51561300       6.12404476       7.77468195        1       0.00010762      -0.00048496      -0.00085161
C       -4.54534233       7.87223376      10.00552983        2       0.00028005       0.00012744      -0.00129629
Ti      -4.54475462       9.62140554       8.71414006        0      -0.00029746       0.00020619      -0.00099567
Ti      -3.03018288       8.74701733      11.31164050        0       0.00035460      -0.00018352      -0.00056396
O       -4.54973411       9.62439869      12.23008024        3       0.00008073      -0.00001199       0.07564415
O       -3.02953798       8.74669401       7.77712710        1      -0.00061741       0.00028485      -0.00249357
C        3.02978689       0.00029834      10.00569176        2       0.00009490      -0.00024685      -0.00141505
Ti       3.03009591       1.74950701       8.71155003        0      -0.00024123      -0.00014593       0.00049014
Ti       4.54393499       0.87474771      11.29549329        0      -0.00006774      -0.00061281       0.00018337
O        3.02851985       1.75173132      12.23008024        3       0.00000881      -0.00005040       0.07026950
O        4.54473243       0.87328683       7.77387432        1      -0.00015318       0.00102672      -0.00074114
C        1.51469801       2.62450082      10.00086411        2       0.00016591       0.00014014       0.00023476
Ti       1.51488408       4.37351587       8.71058676        0      -0.00019922       0.00035418      -0.00022610
Ti       3.02994569       3.49918154      11.29141381        0      -0.00017544       0.00007400      -0.00012960
O        1.51487769       4.37312474      12.23008024        3      -0.00029687       0.00017124       0.07305411
O        3.02985623       3.49813942       7.77118479        1      -0.00024774       0.00056504       0.00031644
C        0.00027421       5.24773918      10.00220245        2      -0.00016655       0.00030991      -0.00026137
Ti       0.00014285       6.99743820       8.71354331        0      -0.00054001       0.00031868       0.00016597
Ti       1.51524734       6.12268670      11.29182621        0      -0.00037335       0.00021396       0.00010748
O        0.00225058       6.99605582      12.23008024        3      -0.00036779       0.00024443       0.05079633
O        1.51386225       6.12350033       7.77193730        1       0.00041721      -0.00020895       0.00024365
C       -1.51540039       7.87240443      10.00767618        2      -0.00034482       0.00024293      -0.00202519
Ti      -1.51520203       9.62153446       8.71622786        0      -0.00016726       0.00018339      -0.00248945
Ti      -0.00114874       8.74677648      11.29886282        0      -0.00075201       0.00027576       0.00051903
O       -1.51304991       9.62401312      12.23008024        3       0.00018353       0.00016940       0.05452432
O       -0.00138467       8.74687222       7.77487546        1       0.00051951       0.00008396      -0.00095143
C        6.05999960       0.00020829      10.00362074        2      -0.00033216       0.00007241      -0.00097341
Ti       6.05966150       1.74931817       8.71161514        0      -0.00038655       0.00016161       0.00015035
Ti       7.57469586       0.87474096      11.29198893        0      -0.00019018       0.00005766      -0.00004968
O        6.06099361       1.75098629      12.23008024        3      -0.00019350       0.00026285       0.07436219
O        7.57442151       0.87435697       7.77188616        1       0.00002681       0.00026091       0.00011929
C        4.54490090       2.62484166      10.00139835        2      -0.00037047       0.00015132      -0.00008974
Ti       4.54498261       4.37345959       8.71045599        0      -0.00026802       0.00013375      -0.00076525
Ti       6.05956320       3.49901716      11.29129645        0      -0.00037709       0.00018369      -0.00017251
O        4.54483436       4.37365210      12.23008024        3      -0.00011445       0.00007486       0.06760242
O        6.06032414       3.49847361       7.77141011        1      -0.00039572       0.00032394       0.00029259
C        3.03003204       5.24812123      10.00071182        2      -0.00016306       0.00013330       0.00034529
Ti       3.02987420       6.99756847       8.71063297        0      -0.00040017       0.00000596      -0.00030077
Ti       4.54464165       6.12274265      11.29135717        0      -0.00011969       0.00012772       0.00001998
O        3.03024338       6.99769335      12.23008024        3      -0.00034234       0.00014340       0.07917488
O        4.54540637       6.12323728       7.77115044        1      -0.00050012       0.00002562       0.00041668
C        1.51548245       7.87210686      10.00231039        2      -0.00036804       0.00000682      -0.00027427
Ti       1.51461384       9.62129210       8.71187020        0      -0.00024932       0.00005182       0.00019986
Ti       3.02985442       8.74675658      11.29151967        0      -0.00023712       0.00003590      -0.00008125
O        1.51736091       9.62247373      12.23008024        3       0.00006052       0.00010590       0.07261703
O        3.02941363       8.74718171       7.77133980        1       0.00016031       0.00001423       0.00052724
C        9.08985800       0.00013518      10.00112683        2      -0.00023755       0.00001351       0.00006113
Ti       9.08977736       1.74947303       8.71058859        0      -0.00015973       0.00008188      -0.00045717
Ti      10.60481172       0.87479146      11.29182920        0      -0.00004582       0.00002399      -0.00004919
O        9.09029301       1.74924309      12.23008024        3      -0.00016398       0.00004539       0.06892749
O       10.60486884       0.87474642       7.77086925        1      -0.00012641       0.00004355       0.00051356
C        7.57489230       2.62411213      10.00131641        2      -0.00034874       0.00016965      -0.00001639
Ti       7.57489167       4.37374400       8.71129396        0      -0.00032131       0.00025904       0.00034658
Ti       9.08974202       3.49886219      11.29185803        0      -0.00012667       0.00009502      -0.00006749
O        7.57429787       4.37205688      12.23008024        3      -0.00029644       0.00010062       0.06622853
O        9.09000800       3.49931622       7.77170606        1      -0.00025758      -0.00010378       0.00018031
C        6.05936362       5.24787994      10.00121376        2      -0.00030862       0.00026005       0.00007029
Ti       6.05990866       6.99743086       8.71147889        0       0.00008422       0.00028681       0.00058137
Ti       7.57436002       6.12338978      11.29431447        0       0.00036516       0.00038590       0.00033955
O        6.05766479       6.99733954      12.23008024        3       0.00008957       0.00009557       0.07104276
O        7.57605045       6.12376353       7.77356124        1      -0.00097071      -0.00036065      -0.00044277
C        4.54456099       7.87223262      10.00097110        2      -0.00005870      -0.00018375       0.00030641
Ti       4.54505868       9.62149984       8.71046167        0      -0.00022472      -0.00008616       0.00058739
Ti       6.05936515       8.74660807      11.29221951        0       0.00025764       0.00005697       0.00030456
O        4.54437329       9.62256769      12.23008024        3       0.00008340      -0.00004436       0.08127355
O        6.06108173       8.74697071       7.77260530        1      -0.00087720       0.00007335       0.00024527
C        0.04160465       0.06971216      17.81560003       10       0.00530091       0.00024987      -0.00734745
C        1.25215277       0.76913418      17.80030798       10       0.00052891      -0.00187237       0.02029545
C       -1.16833783       2.16779319      17.82092073       10      -0.00032517       0.00054779      -0.01153035
C        0.04352047       2.86741111      17.80321030       10      -0.00019188       0.00072154       0.00836554
C       -2.38026937       4.26485341      17.81560003       10      -0.00297529       0.00043532       0.01830964
C       -1.16923274       4.96340173      17.80030798       10      -0.00071868       0.00059128       0.03915210
C       -3.58738398       6.36742170      17.75248928       10      -0.00226645       0.00042245      -0.01383457
C       -2.38030115       7.04857483      17.71066706       10       0.00054481      -0.00054862      -0.42697877
C       -4.80089145       8.46939018      17.75248928       10       0.00333964      -0.00082872      -0.02239062
C       -3.60722713       9.17397278      17.71066706       10       0.00015459      -0.00199281      -0.45265663
C        2.46601761       0.06371861      17.75248928       10       0.00280139      -0.00229288      -0.02332605
C        3.67951511       0.76657028      17.72041060       10       0.00337472       0.00154671       0.16993776
C        1.25507390       2.16715315      17.78926501       10       0.00127134      -0.00123377      -0.02253711
C        2.46716685       2.86641463      17.76735060       10       0.00042351       0.00067375      -0.04045075
C        0.04290146       4.26680671      17.78926501       10       0.00065171      -0.00119685      -0.02449956
C        1.25455403       4.96688003      17.76735060       10      -0.00165217       0.00034429      -0.02875586
C       -1.17328755       6.36731889      17.75248928       10       0.00086001       0.00099413      -0.02974432
C        0.04218243       7.06690603      17.72041060       10      -0.00021541      -0.00118804       0.18149921
C       -2.38020208       8.46536293      17.25786140       10       0.00163135      -0.00212972       0.26707202
C       -1.15333479       9.17398506      17.71066706       10       0.00080615       0.00123517      -0.42833171
C        4.89306519       0.06375311      17.75248928       10       0.00001378      -0.00285457      -0.01993187
C        6.10700077       0.76903527      17.80030798       10       0.00083711       0.00109961       0.03932308
C        3.67967092       2.16382164      17.75274431       10      -0.00119688       0.00154559      -0.07255523
C        4.89222709       2.86633036      17.76735060       10      -0.00024367       0.00030408      -0.04359520
C        2.46702220       4.26655488      17.76466899       10      -0.00145515       0.00009678       0.00243363
C        3.67981216       4.96672785      17.75966822       10      -0.00054924       0.00105542      -0.03323253
C        1.25230632       6.36821537      17.75274431       10       0.00069226      -0.00031094      -0.09410833
C        2.46697621       7.06695044      17.76735060       10       0.00095372       0.00097896      -0.02863574
C        0.04017533       8.46932777      17.75248928       10       0.00022525      -0.00169439      -0.03512950
C        1.25806033       9.16768994      17.80030798       10       0.00049778       0.00323936       0.03909105
C        7.31752619       0.06957187      17.81560003       10      -0.00067551      -0.00141485       0.01745246
C        8.52878262       0.76889545      17.82253855       10       0.00034784       0.00085892      -0.00851790
C        6.10430263       2.16706951      17.78926501       10      -0.00037376       0.00241379      -0.01098612
C        7.31584723       2.86740659      17.80321030       10      -0.00097739      -0.00081129      -0.00991920
C        4.89259836       4.26650541      17.76466899       10      -0.00052828       0.00100482       0.00840233
C        6.10499391       4.96692645      17.76735060       10      -0.00152470       0.00087759      -0.05009660
C        3.67974614       6.36714092      17.76466899       10      -0.00119013      -0.00057966       0.00536353
C        4.89239759       7.06702172      17.76735060       10      -0.00026138       0.00116741      -0.04005222
C        2.46746183       8.46628971      17.78926501       10      -0.00156596      -0.00142428      -0.02548633
C        3.67966739       9.16541438      17.80321030       10       0.00100838       0.00205039       0.01002057
C        9.73959773       0.06852049      17.82092073       10       0.00204993      -0.00046108      -0.01584384
C       10.95040473       0.76900687      17.82253855       10      -0.00013554      -0.00176106      -0.01916489
C        8.52767956       2.16774084      17.82092073       10      -0.00160825       0.00154733      -0.00462962
C        9.73964722       2.86622150      17.82253855       10       0.00279110      -0.00125691      -0.01521582
C        7.31657379       4.26680147      17.78926501       10      -0.00157866      -0.00001366      -0.01052894
C        8.52865822       4.96346378      17.80030798       10       0.00248558      -0.00074044       0.03739157
C        6.10713365       6.36831411      17.75274431       10      -0.00104517      -0.00243671      -0.07226927
C        7.31715511       7.06701035      17.72041060       10       0.00052103      -0.00197934       0.17159114
C        4.89194179       8.46636662      17.78926501       10       0.00180197      -0.00082817      -0.02078161
C        6.10125325       9.16792864      17.80030798       10      -0.00104124      -0.00232796       0.02444545
O       -2.37855313       8.46277820      15.90742828       11       0.00089738       0.00037237      -0.00238419
