131
Lattice="12.12 0.0 0.0 -6.06 10.496227893867395 0.0 0.0 0.0 40.0" Properties=species:S:1:pos:R:3:tags:I:1:forces:R:3 energy=-1204.70390986319 stress="0.002747270013862585 2.7168172149105544e-07 -1.933607819826843e-06 2.7168172149105544e-07 0.0027459399151231745 -3.993224189145239e-06 -1.933607819826843e-06 -3.993224189145239e-06 0.0029290434385799745" pbc="T T F"
C        0.24832947      -0.08890213       9.99060096        2       0.00321875      -0.00300685      -0.00381278
Ti       0.25847570       1.65155251       8.70352904        0      -0.00544176      -0.00245283       0.00018084
Ti       1.78041490       0.79514751      11.27392741        0      -0.00176501      -0.00114194      -0.00197067
O        0.23923283       1.67015602      12.23008024        3       0.00289447      -0.00081369      -0.30228173
O        1.78380225       0.76732765       7.78689375        1      -0.00287167      -0.00304252       0.00194542
C       -1.25827014       2.52785160       9.99383237        2       0.00087476       0.00041209      -0.00046706
Ti      -1.25949117       4.27961124       8.70320770        0      -0.00098005      -0.00589238      -0.00106178
Ti       0.25386043       3.40116051      11.30494044        0      -0.00081876      -0.00390632       0.00350028
O       -1.25212244       4.25344302      12.23008024        3      -0.00211528      -0.00241693      -0.30406085
O        0.25741458       3.40281677       7.76458099        1      -0.00068775       0.00146441       0.00442891
C       -2.77133806       5.14041790       9.98911940        2      -0.00088238       0.00129835      -0.00060252
Ti      -2.77139560       6.91063762       8.76723969        0      -0.00044828       0.00408330       0.00134173
Ti      -1.23926905       6.02498769      11.27328417        0       0.00135971      -0.00007611       0.00269044
O       -2.77084579       6.71893578      12.23008024        3      -0.00383177      -0.00577647      -0.28449824
O       -1.26237540       6.04273733       7.78642373        1      -0.00069605      -0.00000559       0.00386293
C       -4.28507245       7.77730395      10.06449573        2      -0.00300844       0.00036645      -0.00157376
Ti      -4.27872092       9.52269685       8.76770800        0      -0.00003013      -0.00133886      -0.00058302
Ti      -2.77322745       8.64783424      11.74813799        0       0.00223803      -0.00322987      -0.00647075
O       -4.43823164       9.61526500      12.23008024        3      -0.00374852       0.00190816      -0.25424672
O       -2.77189311       8.65172209       7.83295863        1       0.00184750      -0.00083686      -0.00273046
C        3.28811056      -0.09564082      10.06269041        2      -0.00107199       0.00365255      -0.00248046
Ti       3.28858799       1.66109777       8.70319469        0      -0.00027262      -0.00500381       0.00013330
Ti       4.79488858       0.79448501      11.27415063        0       0.00399323      -0.00620575      -0.00129109
O        3.28813073       1.67567354      12.23008024        3       0.00033297      -0.00028915      -0.20843624
O        4.79363110       0.76680799       7.78717024        1      -0.00015602       0.00085355      -0.00032674
C        1.77074914       2.53844027       9.99410543        2       0.00203470      -0.00241968       0.00102614
Ti       1.77050262       4.27731518       8.70608757        0      -0.00231459      -0.00460637       0.00058649
Ti       3.28891152       3.40971164      11.29032137        0      -0.00327573       0.00871122       0.00166726
O        1.77596595       4.27960808      12.23008024        3       0.00013897      -0.00111553      -0.26880186
O        3.28925308       3.39582453       7.76649928        1      -0.00394009       0.00206321       0.00167734
C        0.26521196       5.14590876       9.99422572        2      -0.00004706      -0.00143511      -0.00295530
Ti       0.26333523       6.89956951       8.70348113        0       0.00123133      -0.00008935       0.00241874
Ti       1.77936980       6.02433511      11.29175304        0      -0.00125667       0.00036508       0.00300643
O        0.27661091       6.89127607      12.23008024        3       0.00013677       0.00005351      -0.20944582
O        1.76593710       6.03296740       7.76689929        1       0.00694883      -0.00530127       0.00223915
C       -1.25748921       7.77663309      10.06353142        2      -0.00155042       0.00099474      -0.00424531
Ti      -1.26424287       9.52243973       8.76711270        0      -0.00369312      -0.00181145       0.00160199
Ti       0.26720790       8.63736001      11.27407627        0       0.00003998      -0.00090019       0.00414515
O       -1.10818949       9.61260558      12.23008024        3       0.00006440       0.00365559      -0.24449963
O        0.24227294       8.64961322       7.78702321        1       0.00055430      -0.00023600       0.00347339
C        6.32782109      -0.08969406       9.99079615        2      -0.00138867       0.00055054       0.00063800
Ti       6.31879981       1.65097852       8.70425748        0       0.00338815       0.00127107      -0.00182749
Ti       7.83348548       0.78016771      11.29973135        0       0.00521041      -0.00341819       0.00603157
O        6.33642400       1.66947971      12.23008024        3       0.00253912      -0.00237115      -0.29747236
O        7.83338995       0.77945158       7.76358605        1      -0.00035808      -0.00179702       0.00158347
C        4.80629405       2.53772073       9.99439001        2      -0.00115018       0.00085105       0.00241058
Ti       4.80730032       4.27685423       8.70599073        0       0.00042910      -0.00181285       0.00325726
Ti       6.32358757       3.40032373      11.30545663        0      -0.00429226       0.00227780      -0.00080538
O        4.80163213       4.27945316      12.23008024        3      -0.00344937       0.00095013      -0.26937632
O        6.32058843       3.40231131       7.76508294        1      -0.00462194       0.00220173       0.00351646
C        3.28871608       5.15339584       9.99326656        2       0.00075370      -0.00227312      -0.00463722
Ti       3.28854897       6.90656847       8.70701042        0       0.00010991       0.00136004      -0.00040143
Ti       4.79849810       6.02439164      11.29181513        0      -0.00817057      -0.00153905       0.00206272
O        3.28856920       6.89944577      12.23008024        3       0.00097464      -0.00096204      -0.26721655
O        4.81112649       6.03233899       7.76726605        1      -0.00396974      -0.00089714       0.00151249
C        1.78230555       7.77532332       9.99522278        2       0.00070409      -0.00094358      -0.00370293
Ti       1.77041865       9.52835184       8.70437844        0       0.00612309       0.00209322      -0.00121539
Ti       3.28789201       8.65771352      11.30556458        0       0.00243385      -0.00001249       0.00219215
O        1.79533887       9.53491907      12.23008024        3       0.00100257       0.00316864      -0.29725194
O        3.28860001       8.65415250       7.76559191        1      -0.00245553      -0.00356951       0.00360434
C        9.34816180      -0.09294701       9.99460680        2       0.00024936      -0.00222022      -0.00151731
Ti       9.34870434       1.65383151       8.70727245        0      -0.00159650       0.00074914      -0.00363266
Ti      10.86214312       0.78058286      11.29943848        0       0.00165607      -0.00115872       0.00862491
O        9.34780196       1.65430291      12.23008024        3       0.00184741      -0.00080157      -0.25289050
O       10.86367881       0.77953148       7.76308792        1      -0.00031169      -0.00084347       0.00439325
C        7.83541193       2.52744256       9.99415104        2      -0.00443736       0.00195854       0.00194859
Ti       7.83701178       4.27939507       8.70371560        0      -0.00060875      -0.00239052      -0.00218086
Ti       9.34837091       3.40220879      11.29902701        0       0.00328574      -0.00126103       0.00908793
O        7.82931688       4.25328959      12.23008024        3       0.00164644      -0.00095498      -0.30047066
O        9.34852516       3.40288032       7.76277236        1       0.00094757       0.00231369       0.00225259
C        6.31228244       5.14587050       9.99454510        2      -0.00177915      -0.00104201       0.00098338
Ti       6.31345385       6.89955495       8.70423378        0       0.00273015       0.00118323      -0.00040879
Ti       7.81603601       6.02524957      11.27368768        0       0.00586743      -0.00153542      -0.00045208
O        6.30062827       6.89180851      12.23008024        3      -0.00093728      -0.00016602      -0.20425140
O        7.83943237       6.04271205       7.78733551        1      -0.00130245       0.00029837       0.00028765
C        4.79430266       7.77543506       9.99517733        2       0.00169065      -0.00193321       0.00032730
Ti       4.80625714       9.52845642       8.70422160        0      -0.00107694       0.00308954      -0.00085992
Ti       6.30847812       8.63808144      11.27442556        0      -0.00049800       0.00144173      -0.00124945
O        4.78035765       9.53587982      12.23008024        3       0.00113797      -0.00336931      -0.29793684
O        6.33445267       8.64928581       7.78763933        1       0.00108394       0.00166307       0.00267461
C       -0.36421537       0.21855183      15.54191582       10       0.00601266       0.00740353       0.12272703
C        0.84645746       0.91814919      15.52662377       10      -0.00286372       0.00149103       0.10236859
C       -1.57399824       2.31693819      15.54723652       10       0.00073910       0.00788674       0.10803382
C       -0.36219212       3.01661509      15.52952609       10       0.00117672       0.00380741       0.09173066
C       -2.78616903       4.41429523      15.54191582       10      -0.00059800      -0.00051484       0.12273114
C       -1.57519165       5.11308544      15.52662377       10       0.00160768       0.00049903       0.10146921
C       -3.99269080       6.51906748      15.47880507       10      -0.00108881       0.00015184       0.11168013
C       -2.78619259       7.20256449      15.43698285       10       0.00420508      -0.00109301      -0.47939786
C       -5.20482794       8.61772667      15.47880507       10       0.00221773       0.00302282       0.11270829
C       -4.01011237       9.32138583      15.43698285       10      -0.00497773       0.00313356      -0.43200380
C        2.06163073       0.21159409      15.47880507       10       0.00147778       0.00240623       0.11457039
C        3.27370889       0.91749914      15.44672639       10       0.00537352       0.00334103       0.29910778
C        0.84970106       2.31564440      15.51558080       10      -0.00021414       0.00585103       0.07435476
C        2.06157874       3.01565766      15.49366639       10       0.00147269       0.00031955       0.05756040
C       -0.36335705       4.41673990      15.51558080       10       0.00243929       0.00011234       0.07408475
C        0.84893864       5.11602386      15.49366639       10       0.00062338       0.00285437       0.05567473
C       -1.57967969       6.51899268      15.47880507       10       0.00463889      -0.00111308       0.11232532
C       -0.36193775       7.21517269      15.44672639       10       0.00181476      -0.00024339       0.29948491
C       -2.78534982       8.61641412      14.98417719       10       0.00178028      -0.00056759       0.94007552
C       -1.56117509       9.32184671      15.43698285       10       0.00162110       0.00537938      -0.40207643
C        4.48609131       0.21203407      15.47880507       10       0.00371053      -0.00238937       0.11541673
C        5.70125408       0.91850287      15.52662377       10       0.00405112       0.00340005       0.10252801
C        3.27381217       2.31331227      15.47906010       10      -0.00152181       0.00244040       0.01381154
C        4.48601933       3.01577678      15.49366639       10       0.00073004      -0.00193164       0.05647568
C        2.06112024       4.41562462      15.49098478       10      -0.00032572      -0.00040349       0.09670855
C        3.27385017       5.11572345      15.48598401       10      -0.00019114       0.00142495       0.09928777
C        0.84679055       6.51705316      15.47906010       10      -0.00058861      -0.00036461       0.01521867
C        2.06132370       7.21553174      15.49366639       10      -0.00261156       0.00118743       0.05351816
C       -0.36678834       8.61783707      15.47880507       10      -0.00014595      -0.00005750       0.11389388
C        0.85277151       9.31676220      15.52662377       10      -0.00048724       0.00644997       0.10182367
C        6.91182471       0.21878645      15.54191582       10       0.00269223      -0.00119030       0.12312109
C        8.12310040       0.91815234      15.54885434       10       0.00066740       0.00090108       0.07517571
C        5.69801936       2.31601963      15.51558080       10       0.00058823       0.00173979       0.07502277
C        6.90994355       3.01694791      15.52952609       10      -0.00398566      -0.00169869       0.09102845
C        4.48656058       4.41570446      15.49098478       10       0.00038639       0.00068135       0.09594124
C        5.69875771       5.11617048      15.49366639       10      -0.00152003      -0.00025224       0.05423867
C        3.27395205       6.51597990      15.49098478       10      -0.00005855       0.00053263       0.09493779
C        4.48662838       7.21560769      15.49366639       10      -0.00223693      -0.00018638       0.05310976
C        2.06132502       8.61504548      15.51558080       10      -0.00467527      -0.00123268       0.07579733
C        3.27417262       9.31416578      15.52952609       10      -0.00480907       0.00020686       0.09017648
C        9.33375265       0.21719419      15.54723652       10       0.00670645       0.00136841       0.11369020
C       10.54451274       0.91803256      15.54885434       10      -0.00375977      -0.00130489       0.07477441
C        8.12164753       2.31716143      15.54723652       10       0.00051872       0.00343270       0.10991873
C        9.33384772       3.01537544      15.54885434       10       0.00084336      -0.00249375       0.07395025
C        6.91105400       4.41698623      15.51558080       10      -0.00153149       0.00057444       0.07428312
C        8.12288327       5.11322323      15.52662377       10       0.00194580      -0.00312092       0.10122851
C        5.70101002       6.51713045      15.47906010       10      -0.00000572      -0.00032779       0.01601173
C        6.90963039       7.21521420      15.44672639       10       0.00389442      -0.00296075       0.29944350
C        4.48704641       8.61507948      15.51558080       10       0.00194666      -0.00042338       0.07559207
C        5.69566236       9.31677446      15.52662377       10      -0.00773725      -0.00138399       0.10128088
O       -2.77867933       8.63201068      13.61153189       11      -0.00635927      -0.00342594      -0.00532962
