130
Lattice="12.12 0.0 0.0 -6.06 10.496227893867395 0.0 0.0 0.0 40.0" Properties=species:S:1:pos:R:3:tags:I:1:forces:R:3 energy=-1200.2845585916994 stress="0.0028286959424086607 3.307019573042844e-07 -3.278684236702293e-07 3.307019573042844e-07 0.002828264824947725 -3.229714020315989e-07 -3.278684236702293e-07 -3.229714020315989e-07 0.002857368166114351" pbc="T T F"
C       -0.00008013      -0.00004500       9.98205400        2       0.00005745       0.00010247       0.00037223
Ti      -0.00000060       1.74939699       8.69721998        0      -0.00018975      -0.00074702       0.00174262
Ti       1.51603850       0.87544322      11.30532452        0       0.00033068       0.00034137       0.00055940
O        0.00001743       1.74833398      12.23159545        3      -0.00008110      -0.00051402      -0.08638586
O        1.51513872       0.87473164       7.77591582        1       0.00035489       0.00013264      -0.00510202
C       -1.51512829       2.62429911       9.98221528        2      -0.00032148       0.00043091       0.00192284
Ti      -1.51481674       4.37380666       8.69606342        0       0.00059913      -0.00015792      -0.00158664
Ti      -0.00059563       3.49772657      11.30145193        0       0.00037054       0.00081414      -0.00062146
O       -1.51438632       4.37140780      12.23159545        3      -0.00066959       0.00021591      -0.07598752
O        0.00000906       3.49865081       7.77522525        1       0.00004885      -0.00006581      -0.00634697
C       -3.03058816       5.24784781       9.98205710        2      -0.00070327      -0.00051808       0.00228067
Ti      -3.02953705       6.99747056       8.69602502        0       0.00048624       0.00095039      -0.00104048
Ti      -1.51658377       6.12172434      11.30333569        0      -0.00098096      -0.00093938       0.00122009
O       -3.03093480       6.99859941      12.23159545        3      -0.00054145      -0.00061595      -0.07096802
O       -1.51502042       6.12277237       7.77508097        1       0.00045096       0.00020866      -0.00509355
C       -4.54482621       7.87184058       9.98233534        2       0.00006660      -0.00062372       0.00192538
Ti      -4.54497857       9.62151543       8.69702737        0      -0.00049274       0.00019040       0.00193327
Ti      -3.03140497       8.74669992      11.30127680        0      -0.00012820      -0.00050346      -0.00145955
O       -4.54602837       9.62239224      12.23159545        3      -0.00101972       0.00029659      -0.08549039
O       -3.03009291       8.74694882       7.77516649        1      -0.00003929       0.00012237      -0.00595648
C        3.03016560      -0.00024841       9.98245156        2       0.00049784       0.00030700       0.00208249
Ti       3.03047511       1.74965568       8.69578527        0       0.00026397      -0.00014443      -0.00211434
Ti       4.54488126       0.87529696      11.29801046        0      -0.00011474       0.00049499      -0.00191960
O        3.02815155       1.74855598      12.23159545        3       0.00053574       0.00013844      -0.08737236
O        4.54492479       0.87446343       7.77486400        1       0.00004303      -0.00087968      -0.00723854
C        1.51484143       2.62427939       9.98226943        2       0.00048397       0.00050511       0.00221442
Ti       1.51479706       4.37375327       8.69632004        0      -0.00085716      -0.00019421      -0.00152892
Ti       3.03036565       3.49871072      11.29803973        0       0.00104714      -0.00014998      -0.00091641
O        1.51433406       4.37114742      12.23159545        3       0.00001528      -0.00042094      -0.08068377
O        3.02978496       3.49877191       7.77489269        1      -0.00058691       0.00044932      -0.00761693
C       -0.00009099       5.24873296       9.98217326        2       0.00001432      -0.00040518       0.00277919
Ti       0.00010034       6.99754878       8.69788909        0      -0.00020087       0.00027517       0.00331236
Ti       1.51640380       6.12161929      11.30402612        0       0.00107368      -0.00125648       0.00353206
O       -0.00035438       6.99678450      12.23159545        3      -0.00062340       0.00035932      -0.06217850
O        1.51506880       6.12269146       7.77517320        1      -0.00040693       0.00008431      -0.00496524
C       -1.51457552       7.87182426       9.98220418        2      -0.00039558      -0.00016917       0.00245641
Ti      -1.51481833       9.62116409       8.69644107        0      -0.00061499      -0.00061298      -0.00005930
Ti      -0.00025361       8.74854538      11.30544921        0      -0.00011765       0.00068094       0.00255942
O       -1.51703692       9.62223731      12.23159545        3      -0.00005857       0.00006115      -0.07703861
O       -0.00004787       8.74699416       7.77528990        1      -0.00009305      -0.00030177      -0.00424391
C        6.06007263       0.00022532       9.98237048        2      -0.00016270       0.00073653       0.00294553
Ti       6.06010216       1.74936519       8.69541302        0       0.00018928      -0.00120582      -0.00222886
Ti       7.57524451       0.87513077      11.29772909        0      -0.00010156       0.00041096      -0.00200749
O        6.05970925       1.74861161      12.23159545        3       0.00053242       0.00109325      -0.06749666
O        7.57502951       0.87438434       7.77461439        1      -0.00018254      -0.00112146      -0.00714661
C        4.54553036       2.62440042       9.98170891        2      -0.00013681       0.00026490       0.00159254
Ti       4.54515268       4.37357537       8.69539151        0      -0.00063414       0.00060525      -0.00291578
Ti       6.05976912       3.49854711      11.30345659        0      -0.00022825      -0.00004363       0.00458343
O        4.54391995       4.37366720      12.23159545        3       0.00170133      -0.00064940      -0.06842129
O        6.05992912       3.49861655       7.77480585        1      -0.00025305      -0.00022212      -0.00600163
C        3.03042211       5.24802456       9.98224870        2       0.00035023      -0.00039613       0.00289100
Ti       3.02948354       6.99755671       8.69631521        0      -0.00066399       0.00103526      -0.00106972
Ti       4.54524273       6.12303616      11.29751246        0       0.00063996      -0.00062717      -0.00155688
O        3.03086856       6.99826136      12.23159545        3      -0.00023433      -0.00030798      -0.06905907
O        4.54470762       6.12301301       7.77451478        1      -0.00110298       0.00050049      -0.00768415
C        1.51465981       7.87196852       9.98210591        2       0.00009615      -0.00041589       0.00257614
Ti       1.51481828       9.62107304       8.69646081        0       0.00042937      -0.00068777      -0.00008772
Ti       3.03144616       8.74731142      11.30138028        0      -0.00044906      -0.00097685      -0.00141087
O        1.51631735       9.62213946      12.23159545        3      -0.00021719      -0.00018288      -0.07054872
O        3.03013256       8.74695752       7.77510001        1       0.00001670       0.00004629      -0.00587656
C        9.08963510      -0.00016375       9.98249640        2      -0.00031767       0.00015089       0.00239658
Ti       9.08944653       1.74965049       8.69528721        0      -0.00034513       0.00002585      -0.00209226
Ti      10.60378923       0.87562644      11.30432859        0      -0.00039581       0.00051640      -0.00082963
O        9.09177258       1.74862753      12.23159545        3      -0.00034401       0.00061424      -0.08415150
O       10.60488323       0.87468517       7.77574545        1      -0.00041158       0.00010950      -0.00544019
C        7.57467609       2.62435337       9.98125941        2      -0.00020543       0.00009310       0.00126619
Ti       7.57488770       4.37347876       8.69532364        0       0.00063856       0.00043729      -0.00261510
Ti       9.08953495       3.49863529      11.29776125        0      -0.00027460       0.00037808      -0.00220108
O        7.57590829       4.37383176      12.23159545        3      -0.00088596      -0.00059656      -0.06880904
O        9.09026148       3.49878233       7.77462468        1       0.00056006       0.00042550      -0.00775520
C        6.06006254       5.24789114       9.98088377        2      -0.00023147       0.00001488       0.00081609
Ti       6.05995177       6.99678225       8.69515105        0       0.00012080      -0.00026029      -0.00271920
Ti       7.57479238       6.12278299      11.29755862        0      -0.00047778      -0.00034123      -0.00245733
O        6.06013823       6.99952933      12.23159545        3       0.00021506      -0.00113166      -0.08091557
O        7.57523622       6.12304342       7.77449143        1       0.00082205       0.00046490      -0.00787210
C        4.54473697       7.87189130       9.98242873        2       0.00005281      -0.00073576       0.00244711
Ti       4.54494173       9.62149307       8.69690293        0       0.00049894       0.00036522       0.00152859
Ti       6.06017862       8.74534150      11.30384645        0      -0.00021574      -0.00067946      -0.00097497
O        4.54645342       9.62250110      12.23159545        3       0.00046546       0.00034163      -0.08541975
O        6.05997012       8.74679215       7.77567940        1      -0.00001787      -0.00034261      -0.00542234
C        0.04466096       0.06724832      15.74212177       10       0.00668892       0.00221855      -0.00639634
C        1.25703578       0.76728903      15.74212177       10       0.00277626       0.00289529      -0.03090467
C       -1.16788926       2.16749165      15.74212177       10       0.00285982      -0.00038557       0.01809929
C        0.04494424       2.86613731      15.74212177       10      -0.00077152       0.00180833      -0.02698381
C       -2.37989776       4.26592637      15.74212177       10       0.00308649      -0.00237024       0.03017355
C       -1.16775291       4.96518301      15.74212177       10       0.00137285       0.00084163       0.03083350
C       -3.59177435       6.36467486      15.74212177       10       0.00440634      -0.00180628       0.03338259
C       -2.37995024       7.06469104      15.74212177       10       0.00174816      -0.00155245       0.03538729
C       -4.80276496       8.46346586      15.74212177       10       0.00302974      -0.00245714       0.02057673
C       -3.59128127       9.16424223      15.74212177       10      -0.00045177      -0.00263989      -0.02124133
C        2.46981465       0.06756357      15.74212177       10       0.00416504       0.00466241       0.01884875
C        3.68135071       0.76811973      15.74212177       10       0.00352466       0.00214895       0.01606044
C        1.25778171       2.16736397      15.74212177       10       0.00041100       0.00332763       0.01717826
C        2.47013569       2.86659822      15.74212177       10       0.00020669       0.00054321       0.01634867
C        0.04489726       4.26618598      15.74212177       10       0.00093659       0.00134264       0.01592476
C        1.25765236       4.96516397      15.74212177       10       0.00060700       0.00002473       0.02779689
C       -1.16765193       6.36497570      15.74212177       10       0.00169294       0.00218389       0.02507854
C        0.04485434       7.06493710      15.74212177       10       0.00081703      -0.00128510       0.03834336
C       -2.37887838       8.46430051      15.74212177       10       0.00098351      -0.00038130       0.01542548
C       -1.16718213       9.16518853      15.74212177       10       0.00063989      -0.00291062       0.03018413
C        4.89328213       0.06838151      15.74212177       10       0.00122428       0.00301011       0.02623731
C        6.10505430       0.76801423      15.74212177       10       0.00063697       0.00182596       0.06168838
C        3.68202920       2.16735872      15.74212177       10      -0.00098672       0.00058734       0.03249957
C        4.89381356       2.86701116      15.74212177       10      -0.00051277      -0.00099615       0.07472988
C        2.46993199       4.26593739      15.74212177       10      -0.00001075      -0.00011580       0.02707709
C        3.68169327       4.96559310      15.74212177       10      -0.00034541       0.00014728       0.06219484
C        1.25748441       6.36511707      15.74212177       10       0.00074974       0.00117800       0.02678600
C        2.46993901       7.06466972      15.74212177       10       0.00141249      -0.00038342       0.03639205
C        0.04514590       8.46504140      15.74212177       10      -0.00055865      -0.00135932       0.02806884
C        1.25731076       9.16529448      15.74212177       10      -0.00106252      -0.00274884       0.03461854
C        7.31677477       0.06856321      15.74212177       10      -0.00078698       0.00313382       0.02817550
C        8.52866284       0.76816714      15.74212177       10      -0.00118912       0.00074175       0.02650249
C        6.10520459       2.16768670      15.74212177       10      -0.00059358       0.00141983       0.04331648
C        7.31672212       2.86698564      15.74212177       10      -0.00161867      -0.00209899       0.07446792
C        4.89384344       4.26582078      15.74212177       10      -0.00084125      -0.00003689       0.04277832
C        6.10517817       4.96553792      15.74212177       10      -0.00103255      -0.00144573       0.07301331
C        3.68187148       6.36460852      15.74212177       10       0.00019435      -0.00038277       0.03218973
C        4.89349362       7.06441893      15.74212177       10       0.00011026      -0.00309794       0.03523974
C        2.46905106       8.46442904      15.74212177       10      -0.00308206      -0.00182588       0.01542270
C        3.68147968       9.16444405      15.74212177       10      -0.00376438      -0.00428271      -0.01317493
C        9.74002709       0.06772215      15.74212177       10       0.00043649       0.00298940       0.02109177
C       10.95267063       0.76751600      15.74212177       10      -0.00279152       0.00257090      -0.02711150
C        8.52842866       2.16740584      15.74212177       10      -0.00169311       0.00174082       0.03263156
C        9.74012783       2.86677416      15.74212177       10      -0.00435958       0.00198952       0.02869038
C        7.31665601       4.26591767      15.74212177       10      -0.00124503      -0.00092783       0.04205766
C        8.52869192       4.96562076      15.74212177       10      -0.00304594       0.00248853       0.06432637
C        6.10515348       6.36461479      15.74212177       10       0.00095734      -0.00186086       0.03391244
C        7.31678129       7.06416788      15.74212177       10      -0.00264088       0.00046926       0.03733628
C        4.89297361       8.46363974      15.74212177       10      -0.00236486      -0.00265223       0.02164535
C        6.10528593       9.16371033      15.74212177       10      -0.00626768      -0.00193301      -0.02375359
