130
Lattice="12.12 0.0 0.0 -6.06 10.496227893867395 0.0 0.0 0.0 40.0" Properties=species:S:1:pos:R:3:tags:I:1:forces:R:3 energy=-1200.2512574747025 stress="0.0028121392623175114 1.1768120462566582e-08 -2.5441258495656922e-08 1.1768120462566582e-08 0.0028121144921949824 -1.0874653069256777e-07 -2.5441258495656922e-08 -1.0874653069256777e-07 0.0020559036813123225" pbc="T T F"
C        0.00003691       0.00003699      10.00161026        2      -0.00007720       0.00002483       0.00148984
Ti      -0.00000704       1.74942015       8.68997125        0       0.00000438       0.00017308       0.00120093
Ti       1.51486309       0.87459682      11.31024263        0      -0.00004934       0.00003476      -0.00007136
O       -0.00006536       1.74991078      12.23159545        3       0.00005747      -0.00019729       0.07057281
O        1.51498308       0.87466981       7.76916684        1      -0.00002068      -0.00003012       0.00134513
C       -1.51505802       2.62395920      10.00129574        2       0.00007499      -0.00008811       0.00167785
Ti      -1.51502402       4.37342227       8.69016502        0      -0.00004440       0.00006869       0.00197998
Ti       0.00003459       3.49868530      11.31027781        0       0.00002640       0.00020355      -0.00004913
O       -1.51479930       4.37253144      12.23159545        3      -0.00015509       0.00005205       0.09169284
O       -0.00000651       3.49882248       7.76927857        1      -0.00002442       0.00022490       0.00172278
C       -3.03005212       5.24808485      10.00160233        2      -0.00010868      -0.00004865       0.00178478
Ti      -3.03002364       6.99746162       8.69016577        0      -0.00002058      -0.00009083       0.00198895
Ti      -1.51514085       6.12271008      11.31061587        0      -0.00008874       0.00001972       0.00051788
O       -3.03075042       6.99809655      12.23159545        3       0.00010076      -0.00007045       0.09703443
O       -1.51499895       6.12280298       7.76929015        1       0.00009109       0.00004575       0.00201151
C       -4.54511446       7.87212586      10.00128048        2       0.00006976       0.00009590       0.00162671
Ti      -4.54495212       9.62150715       8.68999956        0       0.00017258      -0.00010733       0.00124540
Ti      -3.03004417       8.74687734      11.31029542        0       0.00016167      -0.00002733      -0.00008390
O       -4.54457065       9.62118686      12.23159545        3      -0.00007182       0.00003454       0.07494054
O       -3.02992710       8.74680553       7.76929300        1       0.00018402      -0.00015348       0.00173487
C        3.02989653       0.00009371      10.00130056        2       0.00007215      -0.00007963       0.00162279
Ti       3.02999423       1.74935742       8.69002676        0      -0.00002602      -0.00002446       0.00142623
Ti       4.54483805       0.87468244      11.31037729        0       0.00004134       0.00016368       0.00005767
O        3.02985710       1.74922691      12.23159545        3      -0.00030844      -0.00021026       0.08876031
O        4.54506162       0.87463166       7.76923587        1       0.00007783      -0.00007746       0.00170243
C        1.51503073       2.62391506      10.00131102        2      -0.00005621       0.00005622       0.00161999
Ti       1.51501809       4.37344526       8.69014489        0       0.00002656       0.00009483       0.00197222
Ti       3.02991462       3.49856201      11.31036886        0       0.00003720      -0.00001283       0.00010065
O        1.51496488       4.37261036      12.23159545        3      -0.00015688      -0.00020402       0.09281480
O        3.02999201       3.49880812       7.76922318        1      -0.00000758       0.00010466       0.00167132
C       -0.00000112       5.24825597      10.00166836        2      -0.00002474      -0.00014387       0.00195218
Ti      -0.00000653       6.99748053       8.69007486        0      -0.00003731      -0.00004960       0.00200510
Ti       1.51515520       6.12275266      11.31060933        0      -0.00000121       0.00005238       0.00058635
O       -0.00008406       6.99724714      12.23159545        3      -0.00016412       0.00010777       0.15562245
O        1.51498628       6.12280881       7.76927027        1      -0.00010160       0.00011180       0.00197052
C       -1.51484945       7.87208490      10.00171566        2      -0.00021440       0.00005892       0.00192826
Ti      -1.51497760       9.62155009       8.69015210        0       0.00009284      -0.00002769       0.00192669
Ti       0.00002978       8.74694724      11.31067040        0      -0.00001905       0.00003362       0.00058549
O       -1.51586644       9.62199996      12.23159545        3       0.00009426      -0.00013684       0.09907637
O       -0.00000246       8.74684126       7.76927154        1       0.00003737      -0.00016553       0.00200133
C        6.06001942      -0.00004517      10.00157817        2      -0.00006014       0.00015631       0.00170641
Ti       6.05999021       1.74938205       8.69002471        0      -0.00003730       0.00001112       0.00176900
Ti       7.57504521       0.87478363      11.31045005        0       0.00001783       0.00009471       0.00006218
O        6.05969601       1.74884022      12.23159545        3       0.00013993       0.00004481       0.12147389
O        7.57494546       0.87465597       7.76923165        1      -0.00008029      -0.00004718       0.00179727
C        4.54509192       2.62412291      10.00135800        2      -0.00012744      -0.00012471       0.00181858
Ti       4.54499297       4.37341295       8.68999238        0      -0.00004184      -0.00005205       0.00177272
Ti       6.05992857       3.49870812      11.31055998        0       0.00007025      -0.00004303       0.00028502
O        4.54429531       4.37332380      12.23159545        3       0.00021541      -0.00031254       0.12689826
O        6.06002075       3.49874754       7.76916959        1      -0.00000651       0.00003592       0.00179893
C        3.03003052       5.24813140      10.00152228        2       0.00005024      -0.00005846       0.00189725
Ti       3.03002924       6.99745932       8.69012864        0       0.00003021      -0.00011401       0.00194119
Ti       4.54515708       6.12281049      11.31045754        0       0.00006587      -0.00025092       0.00019137
O        3.03086828       6.99797040      12.23159545        3       0.00010010       0.00010946       0.10413150
O        4.54495960       6.12277041       7.76921854        1      -0.00004013      -0.00007474       0.00174905
C        1.51486403       7.87210025      10.00172720        2       0.00019051       0.00008210       0.00203883
Ti       1.51499342       9.62157388       8.69013626        0      -0.00010191       0.00001611       0.00188830
Ti       3.03004095       8.74686821      11.31031691        0      -0.00015009      -0.00008850      -0.00002054
O        1.51592408       9.62208660      12.23159545        3      -0.00010154      -0.00004231       0.10565582
O        3.02993917       8.74682317       7.76928017        1      -0.00021716      -0.00013360       0.00177825
C        9.09002805       0.00010705      10.00129735        2       0.00010311      -0.00007824       0.00164221
Ti       9.09001253       1.74934850       8.69007663        0       0.00003827      -0.00004527       0.00148641
Ti      10.60515549       0.87457874      11.31023737        0       0.00016473      -0.00006493      -0.00009529
O        9.09041325       1.74902376      12.23159545        3      -0.00001548      -0.00003070       0.09222819
O       10.60499267       0.87467048       7.76919276        1      -0.00000686      -0.00001485       0.00142825
C        7.57488265       2.62412299      10.00150250        2       0.00012654      -0.00009555       0.00170788
Ti       7.57499970       4.37341735       8.68999686        0       0.00002575      -0.00002162       0.00178956
Ti       9.09002464       3.49856121      11.31046191        0       0.00000248      -0.00003750       0.00008457
O        7.57544781       4.37346971      12.23159545        3      -0.00002267      -0.00009957       0.13733764
O        9.08998075       3.49880814       7.76924016        1      -0.00002268       0.00007498       0.00182336
C        6.05999712       5.24799123      10.00154772        2       0.00001050       0.00010696       0.00190718
Ti       6.05999939       6.99751855       8.69006238        0      -0.00001048       0.00008048       0.00153334
Ti       7.57485816       6.12284669      11.31047548        0      -0.00018120      -0.00013508       0.00018137
O        6.05997330       6.99825627      12.23159545        3      -0.00004808       0.00014767       0.09625912
O        7.57505141       6.12274903       7.76923677        1       0.00003376      -0.00009032       0.00180802
C        4.54511201       7.87212295      10.00129174        2      -0.00003430       0.00006910       0.00161940
Ti       4.54493694       9.62150902       8.69003965        0      -0.00018513      -0.00012881       0.00133587
Ti       6.05998609       8.74709370      11.31025240        0       0.00005262       0.00015482      -0.00016925
O        4.54456088       9.62125282      12.23159545        3       0.00018856       0.00003061       0.07933205
O        6.05998596       8.74685888       7.76920143        1      -0.00000067      -0.00001389       0.00143672
C        0.04469065       0.06741685      17.44738492       10       0.00614229       0.00164874      -0.03056449
C        1.25704659       0.76729029      17.44738492       10       0.00348280       0.00217114      -0.03377472
C       -1.16720951       2.16713356      17.44738492       10      -0.00103278       0.00065272      -0.03713028
C        0.04513161       2.86699662      17.44738492       10      -0.00245352       0.00164555      -0.03796295
C       -2.37931966       4.26609161      17.44738492       10       0.00096389      -0.00081613      -0.03472003
C       -1.16694019       4.96611802      17.44738492       10       0.00085736       0.00112255      -0.02712509
C       -3.59133332       6.36510641      17.44738492       10       0.00313405      -0.00091113      -0.03592732
C       -2.37880736       7.06505858      17.44738492       10       0.00213209      -0.00117544      -0.02594503
C       -4.80267421       8.46407643      17.44738492       10      -0.00028580      -0.00055744      -0.03770361
C       -3.59038027       9.16395688      17.44738492       10      -0.00266136      -0.00118391      -0.03904950
C        2.46923978       0.06744662      17.44738492       10       0.00465814       0.00214243      -0.03848879
C        3.68114580       0.76731140      17.44738492       10       0.00459270       0.00092823      -0.03949396
C        1.25738198       2.16705683      17.44738492       10      -0.00124405       0.00304638      -0.03730387
C        2.46936084       2.86686016      17.44738492       10      -0.00124098      -0.00019224      -0.04119171
C        0.04498369       4.26613994      17.44738492       10       0.00041988       0.00128353      -0.04635322
C        1.25689940       4.96625179      17.44738492       10       0.00078545      -0.00018223      -0.02536308
C       -1.16723379       6.36523897      17.44738492       10       0.00213367       0.00157846      -0.04331469
C        0.04486101       7.06514361      17.44738492       10       0.00157688      -0.00170955       0.01194134
C       -2.37879586       8.46449503      17.44738492       10      -0.00095270      -0.00066646      -0.04646109
C       -1.16658520       9.16411652      17.44738492       10      -0.00099139      -0.00140850      -0.02062034
C        4.89293639       0.06778414      17.44738492       10       0.00302143       0.00030436      -0.03842199
C        6.10488924       0.76695404      17.44738492       10       0.00227623       0.00210742      -0.04365195
C        3.68170538       2.16714709      17.44738492       10      -0.00173508      -0.00005335      -0.03694714
C        4.89325590       2.86657309      17.44738492       10      -0.00192251      -0.00027671      -0.04607828
C        2.46928043       4.26615776      17.44738492       10       0.00007220      -0.00080941      -0.03636844
C        3.68084450       4.96594072      17.44738492       10      -0.00019407       0.00068569      -0.04355900
C        1.25689973       6.36533682      17.44738492       10       0.00193215       0.00024130      -0.04353042
C        2.46861827       7.06503717      17.44738492       10       0.00170580       0.00009430      -0.01996958
C        0.04516168       8.46466326      17.44738492       10      -0.00230815      -0.00209784      -0.04338682
C        1.25702556       9.16404714      17.44738492       10      -0.00310924      -0.00021012      -0.01630080
C        7.31682682       0.06774204      17.44738492       10       0.00099251       0.00148983      -0.04010813
C        8.52856603       0.76724683      17.44738492       10       0.00102718       0.00069974      -0.03874083
C        6.10519671       2.16692965      17.44738492       10      -0.00159409       0.00165792      -0.00928967
C        7.31709355       2.86662421      17.44738492       10      -0.00214020      -0.00162919      -0.04503246
C        4.89324123       4.26603503      17.44738492       10      -0.00081712       0.00015105      -0.00333195
C        6.10501952       4.96583835      17.44738492       10      -0.00042261      -0.00122339      -0.04440784
C        3.68112094       6.36511361      17.44738492       10       0.00119364       0.00015145      -0.03950519
C        4.89274287       7.06499396      17.44738492       10       0.00122360      -0.00294685      -0.04010272
C        2.46921728       8.46451000      17.44738492       10      -0.00466789      -0.00081620      -0.04697674
C        3.68072162       9.16402378      17.44738492       10      -0.00467937      -0.00200513      -0.04012686
C        9.74035115       0.06751055      17.44738492       10       0.00279508       0.00131587      -0.03882372
C       10.95249072       0.76736204      17.44738492       10       0.00039106       0.00070853      -0.03579251
C        8.52859962       2.16709258      17.44738492       10      -0.00209416       0.00116392      -0.03268688
C        9.74096125       2.86675025      17.44738492       10      -0.00307761       0.00090132      -0.04275435
C        7.31695964       4.26610104      17.44738492       10      -0.00084280      -0.00114251       0.00353693
C        8.52919283       4.96594073      17.44738492       10      -0.00089018       0.00078223      -0.04345591
C        6.10485832       6.36482866      17.44738492       10       0.00249211      -0.00151100      -0.02871232
C        7.31699793       7.06487990      17.44738492       10       0.00109812      -0.00051516      -0.04233047
C        4.89299785       8.46419772      17.44738492       10      -0.00346808      -0.00201354      -0.03805087
C        6.10519959       9.16391300      17.44738492       10      -0.00605353      -0.00145388      -0.03761652
