132
Lattice="12.12 0.0 0.0 -6.06 10.496227893867395 0.0 0.0 0.0 40.0" Properties=species:S:1:pos:R:3:tags:I:1:forces:R:3 energy=-1208.807470825157 stress="0.0028262413184852895 2.3530624415196005e-06 -1.4197682752527836e-06 2.3530624415196005e-06 0.002829694437107437 2.6021920281376485e-06 -1.4197682752527836e-06 2.6021920281376485e-06 0.0019666419119887006" pbc="T T F"
C        0.00053529       0.00243369      10.00202459        2       0.00005828       0.00047286       0.00335946
Ti       0.00061264       1.75135328       8.71205536        0      -0.00037577       0.00010662       0.00507369
Ti       1.51446040       0.87739476      11.29110430        0       0.00434087      -0.00213453      -0.00174738
O        0.00189567       1.75116152      12.23008024        3      -0.00204240       0.00152078       0.05835589
O        1.51452850       0.87732635       7.77153658        1       0.00215622      -0.00081151      -0.00049677
C       -1.51448885       2.62633623      10.00446794        2      -0.00089903       0.00002395       0.00389831
Ti      -1.51457825       4.37604969       8.71105057        0      -0.00126226       0.00046093       0.00632510
Ti      -0.00256401       3.50114758      11.29782162        0       0.00129985       0.00016611       0.00130133
O       -1.51530278       4.37736208      12.23008024        3       0.00104410      -0.00036354       0.05822591
O       -0.00026364       3.50088911       7.77240721        1       0.00029469      -0.00032859       0.00318297
C       -3.03009299       5.25135673      10.00144956        2       0.00068039       0.00027988       0.00447476
Ti      -3.02993895       7.00008950       8.71023729        0       0.00093969      -0.00065924       0.00116515
Ti      -1.51536655       6.12517236      11.29157045        0      -0.00011755       0.00387857      -0.00028022
O       -3.03047079       7.00020812      12.23008024        3       0.00047458       0.00038718       0.08083759
O       -1.51462312       6.12451535       7.77145189        1      -0.00042389       0.00206319       0.00029886
C       -4.54484206       7.87476347      10.00098934        2       0.00051049       0.00021384       0.00088023
Ti      -4.54480913       9.62375604       8.71076466        0      -0.00005517       0.00165510      -0.00229762
Ti      -3.03001667       8.74918312      11.29172298        0       0.00071905       0.00299288      -0.00508635
O       -4.54513495       9.62376684      12.23008024        3       0.00119290       0.00058737       0.07037989
O       -3.03003211       8.74929542       7.77052747        1       0.00029128       0.00049037       0.00163169
C        3.03050088       0.00205078      10.00098753        2      -0.00143767       0.00114547       0.00157217
Ti       3.03014694       1.75158373       8.71087194        0      -0.00068979      -0.00064473      -0.00252600
Ti       4.54532304       0.87727641      11.29195009        0      -0.00209365      -0.00195146      -0.00552814
O        3.02999287       1.75188296      12.23008024        3      -0.00046794      -0.00085813       0.08829228
O        4.54517412       0.87731345       7.77086932        1      -0.00050736      -0.00142553       0.00164624
C        1.51523553       2.62610317      10.00175538        2      -0.00037814      -0.00005012       0.00337327
Ti       1.51493385       4.37540666       8.71149688        0       0.00044458       0.00077639       0.00269475
Ti       3.02944199       3.50088807      11.29185336        0       0.00352676       0.00053478      -0.00350356
O        1.51675858       4.37652082      12.23008024        3       0.00060881       0.00025685       0.08960705
O        3.02994594       3.50100242       7.77164525        1       0.00014009       0.00126780      -0.00116056
C       -0.00009006       5.25032217      10.00213225        2      -0.00042568       0.00069016       0.00332533
Ti       0.00014584       6.99988539       8.71107639        0      -0.00163918      -0.00012540       0.00001941
Ti       1.51469898       6.12495104      11.29215613        0       0.00173744       0.00254829      -0.00362395
O        0.00027677       7.00007059      12.23008024        3       0.00121172       0.00239880       0.05654690
O        1.51498996       6.12487793       7.77199262        1       0.00051789       0.00061437      -0.00182380
C       -1.51501859       7.87516170      10.00083719        2      -0.00060465      -0.00049562       0.00193259
Ti      -1.51495977       9.62384405       8.71058385        0       0.00086533       0.00003878      -0.00248190
Ti       0.00037750       8.74938699      11.29161811        0      -0.00328424       0.00036312      -0.00305533
O       -1.51509706       9.62383425      12.23008024        3       0.00019791       0.00039483       0.08850343
O        0.00073629       8.74905761       7.77132538        1      -0.00174287       0.00148754       0.00097520
C        6.05933683       0.00204067      10.00131812        2      -0.00010031       0.00129578       0.00158292
Ti       6.05981235       1.75142676       8.71106304        0       0.00113487      -0.00027965      -0.00069130
Ti       7.57544704       0.87840148      11.29311822        0      -0.00215540      -0.00180018      -0.00187633
O        6.05980278       1.75218623      12.23008024        3      -0.00010634      -0.00091196       0.07717227
O        7.57592257       0.87711115       7.77260689        1      -0.00254022      -0.00031243      -0.00168281
C        4.54494661       2.62624193      10.00138369        2       0.00005380      -0.00060234       0.00042128
Ti       4.54513327       4.37557398       8.71112739        0      -0.00093293       0.00092543      -0.00069246
Ti       6.06037217       3.50101156      11.29162715        0      -0.00255132      -0.00051001      -0.00508182
O        4.54402525       4.37644114      12.23008024        3       0.00038972      -0.00058965       0.07396426
O        6.06019915       3.50101745       7.77183096        1      -0.00016002       0.00112145      -0.00167513
C        3.02991123       5.25047197      10.00141928        2      -0.00028978      -0.00054057       0.00100927
Ti       3.03006979       6.99991461       8.71145034        0      -0.00003222      -0.00046557      -0.00153522
Ti       4.54517154       6.12529939      11.29216486        0      -0.00073283       0.00006197      -0.00120534
O        3.03026876       6.99977014      12.23008024        3       0.00055942       0.00063766       0.08937097
O        4.54507729       6.12505384       7.77166448        1      -0.00009476       0.00057757      -0.00025479
C        1.51507251       7.87462617      10.00175019        2      -0.00034911       0.00044432       0.00001710
Ti       1.51494502       9.62380227       8.71174424        0      -0.00019592       0.00175940      -0.00102033
Ti       3.03020880       8.75014144      11.29281773        0      -0.00187469      -0.00193864      -0.00486457
O        1.51473163       9.62321339      12.23008024        3      -0.00072581       0.00061290       0.08409069
O        3.03018002       8.74972023       7.77261614        1       0.00046319      -0.00072540      -0.00289625
C        9.09036466       0.00297799      10.00341660        2      -0.00117712      -0.00019726       0.00135302
Ti       9.09004403       1.75131430       8.71228132        0      -0.00062151       0.00117906       0.00503419
Ti      10.60397671       0.87984566      11.29988688        0      -0.00079548      -0.00034124       0.00049203
O        9.08857034       1.75293732      12.23008024        3       0.00084130       0.00156249       0.07488944
O       10.60479267       0.87735813       7.77314934        1       0.00145031       0.00024524       0.00180136
C        7.57454090       2.62639017      10.00216556        2       0.00030043      -0.00019078       0.00337344
Ti       7.57499114       4.37579165       8.71118677        0       0.00097869      -0.00014412       0.00327047
Ti       9.09096767       3.50185129      11.29553553        0       0.00059932      -0.00328242       0.00212585
O        7.57496894       4.37604043      12.23008024        3      -0.00212641       0.00046483       0.08342873
O        9.09042537       3.50069464       7.77293998        1      -0.00026820       0.00084816       0.00132420
C        6.06018617       5.25053574      10.00172683        2       0.00162884      -0.00070436       0.00105755
Ti       6.06015213       6.99987796       8.71093568        0      -0.00009032       0.00051845      -0.00065558
Ti       7.57533003       6.12546360      11.29141580        0      -0.00088368       0.00345314      -0.00403243
O        6.05966366       7.00068615      12.23008024        3       0.00140550       0.00012296       0.08679207
O        7.57498083       6.12496404       7.77133246        1      -0.00078824       0.00006368      -0.00042945
C        4.54501721       7.87478455      10.00153872        2       0.00066138       0.00121922       0.00113013
Ti       4.54532277       9.62419474       8.71211153        0      -0.00009083       0.00044209       0.00184309
Ti       6.05986379       8.75006084      11.29171352        0       0.00203988      -0.00248536      -0.00378550
O        4.54560460       9.62244322      12.23008024        3      -0.00009034      -0.00055367       0.07716991
O        6.05979801       8.74944222       7.77168637        1      -0.00068705      -0.00014346      -0.00078609
C        0.06726713       0.05271243      17.70414904       10      -0.00059981      -0.00134759      -0.03317886
C        1.27659282       0.75443346      17.71253727       10       0.00119790       0.00141938      -0.00722403
C       -1.12806936       2.14300997      17.67977837       10       0.00110245      -0.00322910       0.49559615
C        0.06416252       2.85225238      17.68741711       10       0.00147187       0.00034461       0.00438908
C       -2.36340302       4.27966320      17.67977282       10      -0.00084426      -0.00350191       0.25334807
C       -1.15178640       4.95725825      17.68741455       10      -0.00350022       0.00067779       0.03896400
C       -3.57492076       6.36107796      17.70414849       10       0.00134024      -0.00179980       0.01720306
C       -2.36228428       7.05728981      17.71253707       10      -0.00133602      -0.00062111       0.02325070
C       -4.78610975       8.45386913      17.70225610       10       0.00310775       0.00118313      -0.01517594
C       -3.57433857       9.15330898      17.71354576       10       0.00219992       0.00046796      -0.02738669
C        2.48700071       0.05554651      17.71457078       10       0.00207977       0.00058587      -0.02348318
C        3.69738217       0.75597195      17.71354567       10       0.00186249       0.00243154      -0.02423998
C        1.27981353       2.15261542      17.70414925       10      -0.00027231      -0.00049266      -0.03070421
C        2.48698465       2.85515610      17.69508912       10       0.00173474       0.00171537      -0.02782833
C        0.06134674       4.25461529      17.66128923       10      -0.00628031       0.00188379       0.14416484
C        1.27199544       4.95386808      17.67295918       10      -0.00084044      -0.00168142      -0.05713457
C       -1.14998421       6.35988384      17.70414849       10       0.00019638       0.00031123      -0.01413582
C        0.06197023       7.05519139      17.69508922       10       0.00296675      -0.00101934      -0.02425244
C       -2.36240530       8.45540623      17.71457099       10       0.00051253      -0.00116868      -0.02233221
C       -1.15043932       9.15335065      17.71354576       10      -0.00105093      -0.00115388      -0.01428024
C        4.90785737       0.05567387      17.71457078       10       0.00055701      -0.00106863      -0.02604051
C        6.11863329       0.75465029      17.71253727       10       0.00276327       0.00035156       0.01065272
C        3.69734052       2.15513209      17.70225597       10      -0.00038430      -0.00237439      -0.00207790
C        4.90791281       2.85519301      17.69508912       10       0.00188658       0.00110252      -0.02886455
C        2.48549506       4.25452789      17.68120562       10      -0.00300948      -0.00012045      -0.04049203
C        3.69708539       4.95468167      17.67841776       10       0.00162701      -0.00004351      -0.01761442
C        1.27354515       6.35456933      17.68120552       10       0.00064808      -0.00039397      -0.04735922
C        2.48539551       7.05429800      17.67841765       10       0.00231891      -0.00000839       0.00450926
C        0.06121950       8.45382337      17.70225610       10      -0.00216303      -0.00049626      -0.01919782
C        1.27281612       9.15245683      17.69508897       10      -0.00079016      -0.00061485      -0.02286572
C        7.32874062       0.05340471      17.70414904       10       0.00020068      -0.00161943       0.00015413
C        8.54250449       0.75645873      17.68741692       10       0.00052256      -0.00090750       0.03000645
C        6.11536998       2.15300350      17.70414925       10       0.00048073      -0.00350831       0.02516700
C        7.33067333       2.85288608      17.68741711       10      -0.00189827       0.00308182      -0.00104971
C        4.90918904       4.25478561      17.68120562       10      -0.00164901      -0.00261452      -0.02315119
C        6.12279901       4.95416385      17.67295918       10      -0.00085397       0.00143784      -0.05424560
C        3.69741946       6.35437650      17.67533976       10      -0.00206580       0.00144528      -0.04199242
C        4.90942959       7.05454449      17.67841765       10       0.00209550       0.00000437      -0.01025663
C        2.48540989       8.45374665      17.68120535       10      -0.00241355       0.00064304      -0.03445280
C        3.69749396       9.15568890      17.67295877       10       0.00272776      -0.00229420      -0.06739048
C        9.75780651       0.05763408      17.66128918       10      -0.00206248      -0.00237587       0.13596806
C       10.97371880       0.75610011      17.68741692       10       0.00166980      -0.00284638       0.01335145
C        8.52362263       2.14416861      17.67977837       10      -0.00041805      -0.00136006       0.28885400
C        9.75568469       2.85613750      17.43541911       10       0.00008537      -0.00297473      -1.99258230
C        7.33355297       4.25520897      17.66128923       10       0.00086231       0.00048131       0.14842289
C        8.54661877       4.95869062      17.68741455       10      -0.00318061       0.00020053      -0.00543674
C        6.12171320       6.35484960      17.68120552       10      -0.00175779       0.00091344      -0.02388136
C        7.33320768       7.05551087      17.69508922       10      -0.00210385       0.00025522      -0.02202505
C        4.90974340       8.45398408      17.68120535       10       0.00067626       0.00068847      -0.04073294
C        6.12244875       9.15211991      17.69508897       10       0.00482784      -0.00031423      -0.03350950
O        9.83144939       2.81663654      15.85065913       11      -0.00594277       0.00439163      -0.00170989
H        9.02011063       3.21186751      15.48653500       12       0.00484349      -0.00287167       0.00046676
