131
Lattice="12.12 0.0 0.0 -6.06 10.496227893867395 0.0 0.0 0.0 40.0" Properties=species:S:1:pos:R:3:tags:I:1:forces:R:3 energy=-1205.9631341479248 stress="0.002933073687932455 -1.8278665150708663e-06 -2.737243974387642e-06 -1.8278665150708663e-06 0.0029309443107614743 2.6115797687907675e-06 -2.737243974387642e-06 2.6115797687907675e-06 0.0024627317663912978" pbc="T T F"
C       -0.00097722       0.00054395      10.00538220        2      -0.00000793       0.00004886       0.00240996
Ti       0.00033659       1.74918834       8.71565266        0      -0.00042489       0.00011464       0.00050750
Ti       1.51474660       0.87639058      11.30302596        0      -0.00035513       0.00230287      -0.00445632
O       -0.00278981       1.74927173      12.23008024        3      -0.00019962      -0.00029157       0.10233793
O        1.51703015       0.87166852       7.78239305        1      -0.00032429       0.00050063      -0.00218570
C       -1.51509847       2.62408063      10.00393770        2      -0.00031192       0.00011908       0.00140362
Ti      -1.51518097       4.37486506       8.71929147        0      -0.00052274       0.00039109       0.00021583
Ti       0.00048759       3.49871234      11.29960829        0       0.00023462       0.00081859      -0.00154857
O       -1.51425835       4.36684671      12.23008024        3      -0.00090107       0.00142526       0.10589901
O       -0.00119215       3.49960851       7.77839177        1      -0.00019305       0.00047368      -0.00109387
C       -3.03044335       5.24671714      10.00987541        2      -0.00025818       0.00085284       0.00248007
Ti      -3.03052273       6.99874421       8.73184105        0      -0.00034647      -0.00001437      -0.00119794
Ti      -1.51677343       6.12487232      11.31701983        0       0.00145955      -0.00195478      -0.00545857
O       -3.03789943       6.98026798      12.23008024        3       0.00045989       0.00394488      -0.07007505
O       -1.51669316       6.12716388       7.78741569        1      -0.00002729       0.00030243      -0.00221068
C       -4.54349202       7.87357542      10.01890541        2      -0.00084964       0.00021400       0.00175517
Ti      -4.54375126       9.62085626       8.72661169        0      -0.00042148       0.00036439      -0.00103147
Ti      -3.02962883       8.74708506      11.34581442        0      -0.00066668       0.00048975      -0.00811635
O       -4.55863999       9.62938815      12.23008024        3       0.00212145      -0.00121400       0.09367349
O       -3.02825488       8.74604971       7.79119822        1      -0.00028824       0.00024699      -0.00366165
C        3.02961888      -0.00177769      10.01908794        2      -0.00050305       0.00070726       0.00177941
Ti       3.03015497       1.75039761       8.71858026        0      -0.00050974       0.00088870       0.00013742
Ti       4.54456329       0.87665089      11.30671855        0       0.00015829       0.00344986      -0.00524287
O        3.02744149       1.75564146      12.23008024        3      -0.00013619      -0.00133330       0.08690364
O        4.54355377       0.87033689       7.78461197        1      -0.00027796       0.00053692      -0.00219997
C        1.51455764       2.62505772      10.00435915        2      -0.00102851      -0.00050149       0.00135252
Ti       1.51456558       4.37336942       8.71598179        0      -0.00012713       0.00007599       0.00009553
Ti       3.02956915       3.50005992      11.29934182        0      -0.00047866       0.00043860      -0.00156033
O        1.51437568       4.37265414      12.23008024        3      -0.00018204       0.00039345       0.07221240
O        3.02922319       3.49674810       7.77805779        1      -0.00028240       0.00035715      -0.00111521
C        0.00008474       5.24768875      10.00802690        2      -0.00099716       0.00025153       0.00164335
Ti       0.00061366       6.99734033       8.72446928        0       0.00012695      -0.00002176       0.00023870
Ti       1.51660674       6.12177019      11.29959660        0      -0.00045080       0.00010504      -0.00231086
O        0.00709170       6.99348171      12.23008024        3      -0.00189671       0.00135808       0.07379046
O        1.51106123       6.12515726       7.78031862        1      -0.00017853       0.00023275      -0.00141031
C       -1.51712479       7.87372362      10.02699183        2      -0.00012696       0.00011726       0.00187046
Ti      -1.51612982       9.62155182       8.73217904        0      -0.00003421       0.00048886      -0.00149466
Ti      -0.00290109       8.74817063      11.31787577        0       0.00271405      -0.00029503      -0.00563299
O       -1.50237432       9.63872952      12.23008024        3      -0.00351854      -0.00262354      -0.12464725
O       -0.00456037       8.74630924       7.78741755        1      -0.00019668       0.00000821      -0.00222019
C        6.06146770       0.00145761      10.00964051        2      -0.00077140      -0.00004853       0.00254067
Ti       6.05946014       1.74925807       8.71768343        0       0.00007020       0.00036110      -0.00014010
Ti       7.57582895       0.87642242      11.29954734        0      -0.00092259       0.00039008      -0.00211158
O        6.06348529       1.75302941      12.23008024        3      -0.00075645      -0.00071150       0.09325788
O        7.57384264       0.87398621       7.77843167        1      -0.00020251       0.00033002      -0.00097068
C        4.54473712       2.62644269      10.00461030        2      -0.00008770      -0.00060942       0.00116528
Ti       4.54505731       4.37344227       8.71563879        0      -0.00043721       0.00046391      -0.00027813
Ti       6.05842220       3.49946317      11.30043637        0      -0.00026505       0.00023792      -0.00126909
O        4.54408683       4.37341443      12.23008024        3      -0.00024945       0.00053188       0.06904181
O        6.06093105       3.49835708       7.77823068        1      -0.00055756       0.00040129      -0.00099197
C        3.02999459       5.24816355      10.00336266        2      -0.00041815       0.00044133       0.00027618
Ti       3.02991063       6.99799974       8.71618107        0       0.00005096       0.00016067       0.00013135
Ti       4.54352663       6.12223560      11.29971627        0      -0.00063142       0.00003915      -0.00169310
O        3.03017438       6.99818354      12.23008024        3      -0.00004073       0.00035015       0.07164547
O        4.54636211       6.12453033       7.77807261        1      -0.00030962       0.00031578      -0.00111003
C        1.51545426       7.87245287      10.00813642        2      -0.00050583       0.00091082       0.00167943
Ti       1.51374200       9.62113867       8.71940992        0      -0.00048043       0.00047180       0.00011081
Ti       3.03013660       8.74657405      11.29989135        0      -0.00052037      -0.00032933      -0.00168988
O        1.52187081       9.62489060      12.23008024        3      -0.00167520       0.00012941       0.09902302
O        3.02872483       8.74749974       7.77846147        1      -0.00044728       0.00013136      -0.00114462
C        9.09001811       0.00029941      10.00385770        2      -0.00012631       0.00032803       0.00148392
Ti       9.08985665       1.74957106       8.71412057        0      -0.00049743       0.00034766       0.00062685
Ti      10.60472426       0.87491647      11.29931381        0      -0.00028553       0.00039288      -0.00206865
O        9.09107209       1.74919677      12.23008024        3      -0.00013996       0.00017921       0.08917861
O       10.60529395       0.87454093       7.77675308        1      -0.00050311       0.00039834      -0.00084439
C        7.57507167       2.62418384      10.00428136        2       0.00014979       0.00007305       0.00101393
Ti       7.57485717       4.37399756       8.71779304        0      -0.00015478      -0.00014690       0.00008179
Ti       9.08922347       3.49802399      11.30013271        0      -0.00051994       0.00090893      -0.00206788
O        7.57347371       4.36863304      12.23008024        3       0.00035696       0.00116356       0.08591760
O        9.09007551       3.50035731       7.77852504        1      -0.00030081       0.00016972      -0.00094642
C        6.05787843       5.24724406      10.00474993        2       0.00056986       0.00064089       0.00121344
Ti       6.05919934       6.99695579       8.71853808        0      -0.00092780       0.00010131       0.00046217
Ti       7.57283970       6.12208539      11.30575098        0      -0.00217110      -0.00142426      -0.00509164
O        6.05349095       6.99647535      12.23008024        3       0.00105349       0.00105611       0.08275456
O        7.57813607       6.12636808       7.78459279        1      -0.00048169       0.00015793      -0.00228216
C        4.54392832       7.87194290      10.00438204        2       0.00008514       0.00130709       0.00154061
Ti       4.54534223       9.62142952       8.71566677        0      -0.00032257       0.00059154       0.00063591
Ti       6.05821183       8.74620004      11.30247294        0      -0.00168685      -0.00039837      -0.00450144
O        4.54325756       9.62377617      12.23008024        3       0.00018070       0.00058763       0.09911097
O        6.06370933       8.74665148       7.78234944        1      -0.00048286       0.00020437      -0.00228483
C        0.04239171       0.06934582      16.53665266       10      -0.00368204      -0.00199261       0.00409377
C        1.25311387       0.76857593      16.52136061       10       0.00273535       0.00175943       0.01073518
C       -1.16807171       2.16777282      16.54197336       10       0.00097372      -0.00273051      -0.02247528
C        0.04401859       2.86735375      16.52426293       10       0.00027598      -0.00023760      -0.00817117
C       -2.38006873       4.26500439      16.53665266       10       0.00283023      -0.00120437       0.00408131
C       -1.16930687       4.96372640      16.52136061       10       0.00174421      -0.00116895       0.02512069
C       -3.58718336       6.36763824      16.47354191       10       0.00376138      -0.00303926      -0.00622951
C       -2.38043340       7.04999823      16.43171969       10       0.00167174      -0.00234374      -0.43833727
C       -4.79972467       8.46876068      16.47354191       10      -0.00363546      -0.00096649      -0.01858505
C       -3.60550020       9.17282882      16.43171969       10       0.00113429       0.00106497      -0.46246847
C        2.46733334       0.06290553      16.47354191       10      -0.00231587       0.00242603      -0.02021093
C        3.68012363       0.76690546      16.44146323       10      -0.00077237      -0.00515982       0.18012465
C        1.25574445       2.16703245      16.51031764       10      -0.00083695      -0.00009955      -0.02678811
C        2.46754075       2.86650080      16.48840323       10       0.00104374      -0.00236327      -0.03437673
C        0.04305400       4.26709704      16.51031764       10       0.00069744      -0.00135849      -0.02060520
C        1.25461445       4.96696978      16.48840323       10       0.00130853      -0.00051089      -0.03416817
C       -1.17330782       6.36776272      16.47354191       10       0.00097170      -0.00398010      -0.00454513
C        0.04267452       7.06636456      16.44146323       10       0.00007430       0.00205058       0.17019121
C       -2.38024704       8.46475080      15.97891403       10      -0.00033912       0.00115478       0.51116850
C       -1.15500597       9.17284637      16.43171969       10       0.00093962      -0.00156999      -0.45844438
C        4.89295104       0.06289687      16.47354191       10       0.00202715       0.00487178      -0.00710248
C        6.10682843       0.76847664      16.52136061       10       0.00114307      -0.00187669       0.01664213
C        3.67991288       2.16416409      16.47379694       10       0.00057951      -0.00274142      -0.08969562
C        4.89233388       2.86637873      16.48840323       10      -0.00037583      -0.00100634      -0.02575271
C        2.46692980       4.26669978      16.48572162       10       0.00144449      -0.00112337       0.00173806
C        3.67976210       4.96678118      16.48072085       10       0.00002548      -0.00061439      -0.03897529
C        1.25268613       6.36805802      16.47379694       10      -0.00007722      -0.00043945      -0.07663209
C        2.46709702       7.06683637      16.48840323       10      -0.00165233      -0.00023429      -0.03570568
C        0.03969880       8.46877132      16.47354191       10       0.00080983       0.00194814      -0.00180015
C        1.25772392       9.16750414      16.52136061       10      -0.00081460      -0.00494134       0.02298738
C        7.31734468       0.06908284      16.53665266       10       0.00202816       0.00264603       0.00629950
C        8.52880571       0.76864665      16.54359118       10       0.00126101      -0.00085994      -0.00739499
C        6.10426567       2.16679943      16.51031764       10      -0.00170819      -0.00151336      -0.02387015
C        7.31586247       2.86731004      16.52426293       10       0.00072522       0.00121869       0.01205142
C        4.89252538       4.26656161      16.48572162       10      -0.00152773      -0.00033541      -0.00320775
C        6.10496919       4.96687904      16.48840323       10       0.00189638       0.00019318      -0.02552086
C        3.67973203       6.36713471      16.48572162       10       0.00046530       0.00062027       0.00537976
C        4.89249495       7.06684399      16.48840323       10       0.00220527      -0.00031475      -0.03128782
C        2.46729982       8.46599231      16.51031764       10       0.00137944       0.00195768      -0.01521844
C        3.67994953       9.16515952      16.52426293       10       0.00019706      -0.00208474      -0.00651188
C        9.73972160       0.06829179      16.54197336       10      -0.00051673      -0.00026084      -0.02084541
C       10.95077053       0.76874348      16.54359118       10       0.00368493       0.00196579      -0.02045586
C        8.52787546       2.16756081      16.54197336       10       0.00008256      -0.00286605      -0.02684142
C        9.73990379       2.86609281      16.54359118       10      -0.00284036       0.00230303      -0.01045866
C        7.31671380       4.26690476      16.51031764       10      -0.00012913      -0.00139343      -0.02904697
C        8.52902668       4.96370827      16.52136061       10      -0.00208446      -0.00005722       0.02359711
C        6.10688567       6.36805190      16.47379694       10       0.00193470       0.00116233      -0.08798835
C        7.31713737       7.06642168      16.44146323       10       0.00213338       0.00277350       0.17766471
C        4.89232795       8.46606444      16.51031764       10      -0.00288915      -0.00046122      -0.02531075
C        6.10210656       9.16739795      16.52136061       10       0.00326469       0.00166518       0.01286624
O       -2.37727498       8.45701495      14.63165990       11       0.00385932      -0.00430797       0.00704576
