130
Lattice="12.12 0.0 0.0 -6.06 10.496227893867395 0.0 0.0 0.0 40.0" Properties=species:S:1:pos:R:3:tags:I:1:forces:R:3 energy=-1202.2582004445833 stress="0.0028912280973778536 7.441172848598197e-08 6.475905936095508e-08 7.441172848598197e-08 0.0028913114441383335 4.086422354317984e-07 6.475905936095508e-08 4.086422354317984e-07 0.0026507342190592274" pbc="T T F"
C        0.00001290       0.00003412      10.00559775        2       0.00011691       0.00033192      -0.00548265
Ti       0.00002271       1.74927064       8.71774349        0      -0.00012145      -0.00052495      -0.00139458
Ti       1.51493885       0.87469146      11.30717533        0      -0.00133668      -0.00133070       0.00759301
O        0.00007065       1.74907487      12.23008024        3       0.00044835       0.00131237      -0.07762563
O        1.51508672       0.87472618       7.78016008        1       0.00016703       0.00018765       0.00182047
C       -1.51510374       2.62406506      10.00570308        2      -0.00007989       0.00062684      -0.00477038
Ti      -1.51493857       4.37335098       8.71815746        0      -0.00000354      -0.00017658      -0.00141251
Ti       0.00003026       3.49808132      11.30614177        0      -0.00106524      -0.00194334       0.00656391
O       -1.51459833       4.37244422      12.23008024        3       0.00068556       0.00016787      -0.06379157
O        0.00000105       3.49904646       7.78040093        1       0.00008285       0.00008052       0.00145425
C       -3.03010261       5.24812179      10.00626915        2       0.00011106      -0.00016442      -0.00411270
Ti      -3.03003762       6.99755851       8.71820276        0      -0.00023115       0.00038676      -0.00184526
Ti      -1.51548151       6.12243488      11.30686491        0      -0.00109466       0.00029214       0.00648153
O       -3.03066925       6.99829421      12.23008024        3       0.00024375      -0.00011554      -0.06254694
O       -1.51486931       6.12290583       7.78082118        1      -0.00000887       0.00004202       0.00139035
C       -4.54502730       7.87214506      10.00573780        2       0.00008912      -0.00052617      -0.00525297
Ti      -4.54505917       9.62163850       8.71779237        0      -0.00030383       0.00011311      -0.00174935
Ti      -3.03045915       8.74714614      11.30614159        0      -0.00135772       0.00050433       0.00780210
O       -4.54516142       9.62187213      12.23008024        3       0.00047371       0.00014859      -0.07908535
O       -3.02973117       8.74673210       7.78043190        1       0.00005092       0.00002113       0.00181366
C        3.03001538       0.00006433      10.00578176        2       0.00054115       0.00063292      -0.00485174
Ti       3.02974734       1.74923686       8.71790424        0      -0.00045124      -0.00054816      -0.00106812
Ti       4.54491852       0.87528281      11.30605463        0      -0.00039602      -0.00053133       0.00599582
O        3.02927762       1.74895344      12.23008024        3       0.00051741       0.00099136      -0.07068598
O        4.54515922       0.87461102       7.78038758        1       0.00001995       0.00014364       0.00127500
C        1.51507459       2.62403780      10.00569283        2       0.00062043       0.00086388      -0.00407395
Ti       1.51497579       4.37336101       8.71822101        0      -0.00031802      -0.00021349      -0.00111060
Ti       3.03035471       3.49859565      11.30590141        0      -0.00007180      -0.00138023       0.00524244
O        1.51468354       4.37224803      12.23008024        3       0.00041113       0.00036932      -0.06233222
O        3.03002803       3.49891576       7.78033396        1       0.00003811       0.00005654       0.00106134
C       -0.00000607       5.24814369      10.00656695        2       0.00053655       0.00028600      -0.00371170
Ti       0.00001521       6.99749763       8.71878418        0      -0.00024449       0.00015755      -0.00185699
Ti       1.51545568       6.12237058      11.30721907        0      -0.00008225       0.00074475       0.00549897
O       -0.00005723       6.99744573      12.23008024        3       0.00057378      -0.00043115      -0.05656421
O        1.51488402       6.12292718       7.78088068        1       0.00001638      -0.00004692       0.00108749
C       -1.51500012       7.87219798      10.00667022        2       0.00068146      -0.00016449      -0.00429387
Ti      -1.51503912       9.62159008       8.71830918        0      -0.00040917      -0.00005156      -0.00159754
Ti      -0.00009575       8.74744057      11.30736260        0      -0.00018433       0.00081505       0.00619386
O       -1.51614330       9.62207337      12.23008024        3       0.00040354       0.00049509      -0.06271253
O        0.00002777       8.74671686       7.78092664        1      -0.00007244       0.00002745       0.00128770
C        6.06001405       0.00010220      10.00633598        2       0.00003957       0.00015389      -0.00396473
Ti       6.05997142       1.74938325       8.71794658        0       0.00012533      -0.00026489      -0.00099805
Ti       7.57517753       0.87527868      11.30585694        0       0.00133922       0.00027276       0.00606235
O        6.05986614       1.74879889      12.23008024        3      -0.00055177       0.00029020      -0.05944128
O        7.57486381       0.87460291       7.78038304        1      -0.00006839       0.00015580       0.00129268
C        4.54507077       2.62411471      10.00590654        2       0.00000747       0.00063030      -0.00334367
Ti       4.54496598       4.37338488       8.71781696        0       0.00005717       0.00025147      -0.00078749
Ti       6.05998016       3.49889914      11.30545575        0       0.00119489      -0.00027407       0.00497788
O        4.54454603       4.37347999      12.23008024        3      -0.00072750       0.00013688      -0.06183617
O        6.06001791       3.49876927       7.78031311        1      -0.00001044       0.00010209       0.00093712
C        3.03010092       5.24813766      10.00625406        2      -0.00007385      -0.00019705      -0.00305175
Ti       3.03004080       6.99750343       8.71821824        0       0.00019399       0.00053684      -0.00124572
Ti       4.54552310       6.12279428      11.30554788        0       0.00134833       0.00145389       0.00575042
O        3.03085669       6.99812095      12.23008024        3      -0.00036977      -0.00082845      -0.06260088
O        4.54487329       6.12273739       7.78031201        1       0.00004932       0.00000128       0.00122812
C        1.51497773       7.87219710      10.00676758        2      -0.00011859      -0.00047417      -0.00372676
Ti       1.51501879       9.62159400       8.71828529        0       0.00032356       0.00011085      -0.00133911
Ti       3.03026548       8.74699285      11.30619530        0       0.00151166       0.00175693       0.00677717
O        1.51593761       9.62213980      12.23008024        3      -0.00018007      -0.00018056      -0.06361834
O        3.02971363       8.74672228       7.78047312        1       0.00001597      -0.00004544       0.00149880
C        9.08999164       0.00006044      10.00581170        2      -0.00059968       0.00000342      -0.00480708
Ti       9.09025854       1.74922390       8.71787268        0       0.00045014      -0.00023897      -0.00120305
Ti      10.60533175       0.87458506      11.30704337        0       0.00032319      -0.00063442       0.00753407
O        9.09113343       1.74870529      12.23008024        3      -0.00014062       0.00023695      -0.06687853
O       10.60490306       0.87471775       7.78015245        1      -0.00007173       0.00013369       0.00181890
C        7.57501925       2.62412875      10.00598009        2      -0.00061545       0.00026724      -0.00380721
Ti       7.57502375       4.37342098       8.71778515        0       0.00032706       0.00031349      -0.00131550
Ti       9.08976620       3.49859100      11.30555059        0       0.00007766      -0.00102524       0.00615420
O        7.57516477       4.37351942      12.23008024        3      -0.00056956      -0.00031288      -0.06260828
O        9.08997962       3.49889209       7.78028239        1      -0.00006968       0.00013317       0.00137294
C        6.06004409       5.24819049      10.00600314        2      -0.00052123      -0.00062177      -0.00362129
Ti       6.05999095       6.99778773       8.71780956        0       0.00026054       0.00071225      -0.00144562
Ti       7.57458533       6.12285325      11.30551091        0       0.00002562       0.00080185       0.00649816
O        6.05996719       6.99938605      12.23008024        3      -0.00046940      -0.00061713      -0.06576318
O        7.57511514       6.12273371       7.78027574        1      -0.00003063       0.00000283       0.00154895
C        4.54503255       7.87218220      10.00574802        2      -0.00052252      -0.00081883      -0.00460482
Ti       4.54502804       9.62158930       8.71783896        0       0.00044674       0.00033643      -0.00152063
Ti       6.06005362       8.74736488      11.30676681        0      -0.00003915       0.00116794       0.00789341
O        4.54528217       9.62184036      12.23008024        3      -0.00065127      -0.00043583      -0.07912182
O        6.05998846       8.74678693       7.78012130        1      -0.00000008      -0.00012572       0.00194411
C        0.04504195       0.06750355      16.02481708       10      -0.00384398      -0.00259185      -0.02173001
C        1.25720560       0.76734953      16.02481708       10       0.00151411       0.00063743       0.03873285
C       -1.16737176       2.16711736      16.02481708       10       0.00056911      -0.00539252       0.00294059
C        0.04492843       2.86680305      16.02481708       10       0.00047404       0.00089907       0.03157349
C       -2.37915280       4.26615474      16.02481708       10      -0.00016071      -0.00311897       0.01881451
C       -1.16701889       4.96578177      16.02481708       10       0.00138030       0.00117002       0.01204421
C       -3.59081645       6.36510845      16.02481708       10      -0.00148736      -0.00351389       0.02066780
C       -2.37878915       7.06489491      16.02481708       10      -0.00139008       0.00240343       0.01156104
C       -4.80291383       8.46408250      16.02481708       10      -0.00161151      -0.00123502       0.00589523
C       -3.59086293       9.16411450      16.02481708       10       0.00453116      -0.00131558       0.03072274
C        2.46941147       0.06749408      16.02481708       10      -0.00246331       0.00176528       0.00183165
C        3.68129824       0.76728229      16.02481708       10      -0.00299617      -0.00333045       0.02418594
C        1.25713588       2.16707318      16.02481708       10       0.00074083      -0.00380226      -0.00021496
C        2.46909981       2.86660584      16.02481708       10      -0.00130257       0.00113267       0.02804697
C        0.04507512       4.26628400      16.02481708       10      -0.00138793      -0.00208103       0.03539385
C        1.25710566       4.96581409      16.02481708       10      -0.00078819       0.00179896       0.01163437
C       -1.16684652       6.36518841      16.02481708       10      -0.00650320      -0.00205751       0.05225785
C        0.04520060       7.06491196      16.02481708       10      -0.00201825       0.00062037       0.00072475
C       -2.37876901       8.46440539      16.02481708       10      -0.00141192       0.00134745       0.03672671
C       -1.16686800       9.16419225      16.02481708       10       0.00104111      -0.00570784       0.01112986
C        4.89332712       0.06738783      16.02481708       10      -0.00196440       0.00560335       0.02336823
C        6.10507021       0.76737765      16.02481708       10      -0.00260703      -0.00395084       0.01772955
C        3.68120456       2.16689892      16.02481708       10       0.00236776      -0.00049014       0.01073077
C        4.89285247       2.86659842      16.02481708       10       0.00161322      -0.00214837       0.01684591
C        2.46912647       4.26616766      16.02481708       10       0.00226064       0.00001978       0.01939334
C        3.68108305       4.96577082      16.02481708       10      -0.00248388      -0.00017964       0.01921644
C        1.25721252       6.36515264      16.02481708       10      -0.00157475       0.00175116       0.05471252
C        2.46901140       7.06495028      16.02481708       10      -0.00243821       0.00063474       0.01072115
C        0.04493942       8.46436580      16.02481708       10       0.00261839       0.00338180       0.05648089
C        1.25674840       9.16420443      16.02481708       10       0.00192304      -0.00584716       0.01054152
C        7.31686406       0.06739551      16.02481708       10      -0.00101257       0.00535709       0.02808017
C        8.52883619       0.76728270      16.02481708       10       0.00104100      -0.00155038       0.02156901
C        6.10477349       2.16686811      16.02481708       10       0.00189441      -0.00063384       0.01952135
C        7.31664356       2.86649527      16.02481708       10       0.00648162       0.00170122       0.01207013
C        4.89302867       4.26602596      16.02481708       10       0.00059608      -0.00194012       0.01809547
C        6.10494438       4.96562985      16.02481708       10       0.00153641       0.00167341       0.00851624
C        3.68095956       6.36517404      16.02481708       10       0.00125196      -0.00146793       0.02594950
C        4.89304505       7.06477468      16.02481708       10      -0.00074243       0.00354365       0.02260439
C        2.46871239       8.46442008      16.02481708       10       0.00329630       0.00306968       0.03898577
C        3.68070719       9.16414257      16.02481708       10       0.00228195      -0.00173763       0.02909405
C        9.74072604       0.06750822      16.02481708       10      -0.00451057       0.00132679       0.00669433
C       10.95278944       0.76737881      16.02481708       10       0.00121331       0.00105742       0.03514196
C        8.52846662       2.16689544      16.02481708       10       0.00133593      -0.00217882       0.01345721
C        9.74064707       2.86654028      16.02481708       10       0.00143608       0.00330031       0.02928402
C        7.31684938       4.26594305      16.02481708       10      -0.00114165      -0.00115549       0.01580372
C        8.52889147       4.96565103      16.02481708       10       0.00053414       0.00315861       0.02006631
C        6.10503826       6.36486944      16.02481708       10      -0.00050400      -0.00138453       0.01530757
C        7.31707044       7.06471583      16.02481708       10      -0.00066472       0.00517364       0.02667071
C        4.89279579       8.46412588      16.02481708       10      -0.00126979      -0.00075696       0.00745437
C        6.10490069       9.16389894      16.02481708       10       0.00363384       0.00252462       0.03368310
