132
Lattice="12.12 0.0 0.0 -6.06 10.496227893867395 0.0 0.0 0.0 40.0" Properties=species:S:1:pos:R:3:tags:I:1:forces:R:3 energy=-1206.3243777249245 stress="0.0026059745375885523 -6.432693461982567e-05 2.4469865646738566e-06 -6.432693461982567e-05 0.0025317753424229416 8.070463850043121e-09 2.4469865646738566e-06 8.070463850043121e-09 0.0029454708700750124" pbc="T T F"
C       -0.04840342      -0.07996558       9.99206751        2       0.00319551      -0.00016868      -0.00211543
Ti      -0.04593793       1.67522918       8.70374547        0      -0.00094117      -0.00196391      -0.00079633
Ti       1.44786336       0.81316080      11.28472414        0       0.00083432      -0.00121416      -0.00207892
O       -0.10637705       1.71085401      12.23008024        3       0.00246229      -0.00222855      -0.20989838
O        1.46524768       0.80224471       7.76541715        1       0.00415074       0.00154923       0.00050111
C       -1.57541739       2.55890865      10.02985143        2       0.00106619      -0.00341712       0.00149946
Ti      -1.55891956       4.29902059       8.71226049        0      -0.00360015      -0.00069109       0.00462190
Ti      -0.01881240       3.47337565      11.22772925        0      -0.00148439      -0.00058878      -0.00227727
O       -1.30983854       4.53141062      12.23008024        3       0.00204320       0.00097805      -1.04983632
O       -0.05108294       3.41760480       7.76132742        1      -0.00235545      -0.00051214      -0.00273963
C       -3.06311725       5.15394226      10.03061428        2      -0.00193926      -0.00133519       0.00547862
Ti      -3.07110637       6.92725804       8.70497985        0       0.00070481      -0.00139608       0.00404304
Ti      -1.54827320       6.09054094      11.27698483        0       0.00289749      -0.00494980      -0.00128563
O       -3.07418088       6.94490291      12.23008024        3       0.00000446      -0.00113684      -0.37200811
O       -1.56850637       6.04329220       7.76233070        1       0.00058062       0.00121584       0.00016031
C       -4.58687580       7.79768759       9.99584047        2       0.00179159      -0.00055084       0.00208621
Ti      -4.59175080       9.54692221       8.70412253        0      -0.00189758      -0.00047290       0.00177301
Ti      -3.08333444       8.69021503      11.27170201        0      -0.00144252       0.00225433       0.00164454
O       -4.60110541       9.55918281      12.23008024        3      -0.00014440      -0.00061989      -0.37182794
O       -3.08289114       8.66667498       7.75665140        1       0.00344027       0.00029885       0.00389156
C        2.97209013      -0.06734285       9.99471652        2       0.00151508       0.00091825       0.00224322
Ti       2.98387756       1.67539021       8.70451783        0       0.00076928       0.00131034      -0.00046899
Ti       4.48102187       0.79873601      11.27168977        0      -0.00380050      -0.00106116       0.00339218
O        2.96922413       1.67827575      12.23008024        3      -0.00101645       0.00012828      -0.37112724
O        4.50107420       0.80877817       7.75695580        1       0.00033917       0.00286942       0.00289758
C        1.47311808       2.55496410       9.99195761        2      -0.00174763      -0.00199581      -0.00169483
Ti       1.47689845       4.30298337       8.68319441        0       0.00316934       0.00040166      -0.00011358
Ti       2.98631136       3.43098523      11.28737104        0      -0.00120470      -0.00042526       0.00174540
O        1.50194741       4.31482881      12.23008024        3      -0.00078915      -0.00191727      -0.50463145
O        2.99384818       3.42271557       7.75778631        1      -0.00115409       0.00027426       0.00120925
C       -0.02054898       5.19102185       9.95623059        2      -0.00039795      -0.00425308      -0.00097408
Ti      -0.03854906       6.92126457       8.68377862        0      -0.00050605       0.00225325       0.00114909
Ti       1.48169132       6.06302724      11.27026829        0       0.00183836      -0.00167018       0.00019181
O       -0.01140423       6.96347587      12.23008024        3       0.00303365      -0.00131742      -0.57281279
O        1.48011345       6.04884005       7.74020191        1       0.00086635       0.00041570      -0.00044629
C       -1.55987251       7.81953292       9.97448549        2      -0.00035858       0.00070963       0.00064155
Ti      -1.55865985       9.54569934       8.68599301        0       0.00359791      -0.00179946       0.00632912
Ti      -0.05187962       8.67656722      11.26953760        0      -0.00002051      -0.00118878       0.00241971
O       -1.56693115       9.55098192      12.23008024        3      -0.00017389      -0.00004480      -0.48733049
O       -0.04917367       8.67480259       7.74083304        1      -0.00046032      -0.00140553       0.00433719
C        5.99632182      -0.08583912       9.97478630        2      -0.00213395      -0.00071094      -0.00044235
Ti       6.01299963       1.66840029       8.70536585        0       0.00295943       0.00195036       0.00160731
Ti       7.50050811       0.76910714      11.27650053        0       0.00649595       0.00149733       0.00430053
O        5.99734930       1.66317739      12.23008024        3      -0.00261344      -0.00042055      -0.37160903
O        7.53019776       0.80969554       7.76288253        1      -0.00137927       0.00053765       0.00009646
C        4.50178521       2.54617875       9.99612561        2      -0.00102208       0.00007067       0.00007199
Ti       4.50745441       4.29356088       8.70615274        0      -0.00294169       0.00314129      -0.00261012
Ti       6.02293990       3.41703778      11.29492102        0       0.00269135       0.00133675      -0.00222143
O        4.50662959       4.29744878      12.23008024        3      -0.00044293       0.00015947      -0.36833508
O        6.03035672       3.42007936       7.77421179        1       0.00046767      -0.00134508       0.00112789
C        2.99484112       5.17347571       9.98743397        2      -0.00023804       0.00263392      -0.00098319
Ti       2.99419231       6.91711995       8.68848172        0       0.00423714      -0.00081576       0.00001677
Ti       4.50581997       6.04459507      11.26839458        0      -0.00074993       0.00037811       0.00143183
O        2.99151797       6.91878665      12.23008024        3       0.00195983      -0.00010762      -0.44869901
O        4.51257178       6.04029416       7.75756914        1      -0.00126494       0.00177176       0.00134519
C        1.47515919       7.79444793       9.97470489        2       0.00185556      -0.00188878      -0.00101913
Ti       1.47448370       9.54193566       8.68417031        0      -0.00113392      -0.00001979      -0.00087196
Ti       2.97811352       8.65429987      11.27078415        0       0.00342799       0.00085058      -0.00061667
O        1.45175869       9.49679416      12.23008024        3       0.00230305       0.00146914      -0.57195895
O        2.98901638       8.66265642       7.74037901        1       0.00204548       0.00011360       0.00010755
C        9.04250653      -0.10447387       9.95659376        2      -0.00021552       0.00081158      -0.00479627
Ti       9.04539700       1.67398389       8.71304081        0      -0.00066625       0.00214091       0.00196565
Ti      10.53139643       0.75329242      11.22843642        0      -0.00546109       0.00076007      -0.00032645
O        8.97010436       1.33955426      12.23008024        3      -0.00490492       0.00298881      -1.03779388
O       10.56237162       0.80848930       7.76166663        1       0.00003155       0.00250649      -0.00203137
C        7.55368986       2.54965586      10.03127647        2      -0.00211774      -0.00335276       0.00079875
Ti       7.53480155       4.29573482       8.71980505        0       0.00057988       0.00120422       0.00310400
Ti       9.04804752       3.42460211      11.28421929        0      -0.00468218      -0.00502326      -0.00151100
O        7.51255315       4.30940443      12.23008024        3      -0.00074733       0.00044479      -0.17484489
O        9.04722439       3.42271991       7.77091934        1      -0.00021016       0.00106742       0.00144318
C        6.02158261       5.16951773       9.99967199        2      -0.00028475       0.00083563       0.00231262
Ti       6.02230108       6.91831541       8.70585134        0      -0.00068418       0.00426993      -0.00215584
Ti       7.53962144       6.04587594      11.29452564        0       0.00118572      -0.00493976      -0.00272121
O        6.01924750       6.91782978      12.23008024        3      -0.00004902       0.00003266      -0.36894085
O        7.54057913       6.03666276       7.77390483        1       0.00190823      -0.00010624       0.00218158
C        4.50429095       7.78847308       9.98742690        2       0.00165735       0.00130897      -0.00090374
Ti       4.49903355       9.53870173       8.68357375        0       0.00501832      -0.00142092      -0.00162002
Ti       6.00980251       8.66774261      11.28718100        0      -0.00199271       0.00288781       0.00138772
O        4.50241590       9.51094223      12.23008024        3       0.00083616       0.00149727      -0.50445608
O        6.01987106       8.66485031       7.75784797        1       0.00005976       0.00134012       0.00137844
C        0.10483382       0.18815551      15.14625431       10       0.00027017       0.00196594       0.10062712
C        1.31370292       0.89051955      15.15464254       10       0.00036950      -0.00035513       0.05634304
C       -1.08586570       2.27593990      15.12188364       10       0.00234280      -0.00206812       1.24939236
C        0.10145635       2.98877613      15.12952238       10       0.00016438       0.00120829       0.15863481
C       -2.32682317       4.42033992      15.12187809       10      -0.00072065       0.00038410       0.61460960
C       -1.11579534       5.09322283      15.12951982       10      -0.00005019       0.00156684       0.20734553
C       -3.53880489       6.49839341      15.14625376       10       0.00075938      -0.00002875       0.14390791
C       -2.32619602       7.19326457      15.15464234       10       0.00145540       0.00016904       0.17608914
C       -4.74929876       8.58910137      15.14436137       10      -0.00021936      -0.00036731       0.15011221
C       -3.53747216       9.28883881      15.15565103       10      -0.00027819      -0.00298424       0.08905088
C        2.52478885       0.19129505      15.15667605       10      -0.00059782       0.00161772       0.09867310
C        3.73495258       0.89264778      15.15565094       10       0.00272021      -0.00082842       0.08914935
C        1.31755645       2.28859810      15.14625452       10      -0.00056342       0.00128128       0.10075927
C        2.52391067       2.99187912      15.13719439       10      -0.00055199      -0.00043402       0.05288696
C        0.09794350       4.39209355      15.10339450       10      -0.00162898       0.00037490       0.25242066
C        1.30807560       5.09003719      15.11506445       10      -0.00025464      -0.00056298       0.07367494
C       -1.11304434       6.49730084      15.14625376       10      -0.00012777      -0.00021268       0.04704568
C        0.09851043       7.19124516      15.13719449       10       0.00031196       0.00128566       0.16112060
C       -2.32490712       8.59114345      15.15667626       10      -0.00090834      -0.00242083       0.08372779
C       -1.11357197       9.28939033      15.15565103       10       0.00029379      -0.00060674       0.17673676
C        4.94545122       0.19133090      15.15667605       10       0.00055261       0.00220732       0.08366987
C        6.15538512       0.89136042      15.15464254       10       0.00172234       0.00050280       0.17618586
C        3.73507619       2.29195932      15.14436124       10      -0.00259079       0.00187523       0.15001789
C        4.94538576       2.99258075      15.13719439       10       0.00027988      -0.00068703       0.08001448
C        2.52146222       4.39139634      15.12331089       10       0.00139533       0.00026433       0.11607425
C        3.73398833       5.09081827      15.12052303       10       0.00219754       0.00009487       0.12621285
C        1.30952654       6.49107980      15.12331079       10      -0.00076022      -0.00003223       0.01983561
C        2.52185023       7.19050495      15.12052292       10      -0.00137150       0.00074071       0.19338908
C        0.09828350       8.58971999      15.14436137       10      -0.00010576       0.00040951       0.04003982
C        1.30949669       9.28878481      15.13719424       10      -0.00066487      -0.00107612       0.16120873
C        7.36470027       0.18877047      15.14625431       10      -0.00017570      -0.00077708       0.04701733
C        8.57927702       0.89320850      15.12952219       10      -0.00230030       0.00045922       0.20723654
C        6.15089718       2.28895278      15.14625452       10      -0.00340510       0.00071777       0.14371280
C        7.36572122       2.99070326      15.12952238       10      -0.00197073      -0.00011897       0.12826964
C        4.94598511       4.39143632      15.12331089       10       0.00018713       0.00095727       0.16620015
C        6.15833795       5.09096623      15.11506445       10       0.00172368      -0.00040656       0.00675981
C        3.73372856       6.49087045      15.11744503       10      -0.00260650      -0.00000990       0.10906653
C        4.94632194       7.19065751      15.12052292       10       0.00061343      -0.00177267       0.12623759
C        2.52137268       8.59010842      15.12331062       10       0.00000566       0.00144281       0.01973073
C        3.73396900       9.29193808      15.11506404       10       0.00183455      -0.00142200       0.07353622
C        9.79333311       0.19267102      15.10339445       10       0.00031128       0.00182872       0.25218075
C       11.01044077       0.89126271      15.12952219       10      -0.00223709       0.00002714       0.15786452
C        8.55646730       2.27844779      15.12188364       10      -0.00124959      -0.00102452       0.61873735
C        9.79352607       2.99218126      14.87752438       10      -0.00034830      -0.00036322      -0.45615592
C        7.36679965       4.39324205      15.10339450       10       0.00067951       0.00154775       0.37733600
C        8.58096021       5.09542006      15.12951982       10      -0.00326089       0.00171173       0.12813787
C        6.15795589       6.49067947      15.12331079       10       0.00086657      -0.00104154       0.16625253
C        7.36915376       7.19058717      15.13719449       10      -0.00302060       0.00244985       0.07994333
C        4.94574737       8.59043801      15.12331062       10       0.00007546      -0.00070076       0.11618127
C        6.15902063       9.28806315      15.13719424       10      -0.00247385      -0.00141706       0.05287951
O        9.80494426       2.98452645      13.37119529       11      -0.00585895       0.00555142       0.00198438
H       10.62925003       2.51358999      13.07969360       12       0.00251925      -0.00803157      -0.00306621
