131
Lattice="12.12 0.0 0.0 -6.06 10.496227893867395 0.0 0.0 0.0 40.0" Properties=species:S:1:pos:R:3:tags:I:1:forces:R:3 energy=-1204.6603526201188 stress="0.002840060663034929 6.212734601590837e-08 -4.10972187163177e-06 6.212734601590837e-08 0.0028406491160911903 1.022391635937065e-06 -4.10972187163177e-06 1.022391635937065e-06 0.0020835906707498057" pbc="T T F"
C       -0.00107145       0.00043648      10.00380462        2      -0.00041228       0.00006275       0.00005608
Ti       0.00039057       1.74938231       8.69130231        0      -0.00052803       0.00003824       0.00053881
Ti       1.51510231       0.87512448      11.31293406        0      -0.00002811      -0.00092372       0.00080695
O       -0.00037929       1.74955073      12.23159545        3      -0.00085348       0.00035479       0.10009533
O        1.51623444       0.87248449       7.77463844        1      -0.00032339      -0.00002348       0.00039492
C       -1.51501938       2.62396559      10.00307458        2      -0.00035027       0.00017592       0.00006083
Ti      -1.51517386       4.37424210       8.69531714        0      -0.00021352      -0.00017631       0.00098044
Ti      -0.00006333       3.49906975      11.31188868        0      -0.00004099       0.00058233      -0.00053702
O       -1.51475434       4.37156910      12.23159545        3      -0.00027948      -0.00106588       0.14517592
O       -0.00091225       3.49953249       7.77217311        1      -0.00042372       0.00011987       0.00014542
C       -3.03056117       5.24750189      10.00697407        2      -0.00052258       0.00008612       0.00050373
Ti      -3.03109728       6.99630776       8.70174096        0      -0.00039391       0.00015367       0.00122746
Ti      -1.51635323       6.12635684      11.32425608        0      -0.00164422       0.00183956       0.00251487
O       -3.03440396       6.99474490      12.23159545        3      -0.00090838      -0.00004107       0.05813655
O       -1.51569587       6.12594417       7.78020306        1      -0.00049836       0.00019135       0.00141696
C       -4.54600632       7.87178072      10.01004269        2      -0.00083504       0.00009399      -0.00025749
Ti      -4.54511366       9.62146581       8.69903125        0      -0.00054270       0.00010517       0.00093505
Ti      -3.03030250       8.74679582      11.34014824        0      -0.00002563       0.00002985       0.00229290
O       -4.54723526       9.62217017      12.23159545        3      -0.00132438       0.00068587       0.06887521
O       -3.02822169       8.74588948       7.78350086        1      -0.00037827       0.00000810       0.00105183
C        3.02977574       0.00050525      10.01071710        2      -0.00065655       0.00038142      -0.00045178
Ti       3.02968521       1.74876238       8.69662203        0      -0.00025684       0.00018693       0.00043253
Ti       4.54328643       0.87695659      11.31788734        0      -0.00101212      -0.00209284       0.00204246
O        3.02882526       1.75225434      12.23159545        3      -0.00064981       0.00035323       0.13446589
O        4.54449254       0.87189640       7.77687596        1      -0.00030927      -0.00025488       0.00093066
C        1.51466053       2.62364504      10.00311217        2      -0.00021623      -0.00007269       0.00039961
Ti       1.51454369       4.37332255       8.69213341        0      -0.00026731      -0.00000918       0.00100599
Ti       3.02975426       3.49962257      11.31137950        0      -0.00022609      -0.00005857      -0.00073013
O        1.51511703       4.37168016      12.23159545        3      -0.00004391      -0.00016048       0.13446634
O        3.02971353       3.49733464       7.77221665        1      -0.00042419       0.00014818      -0.00017468
C        0.00085242       5.24764651      10.00577967        2      -0.00015556       0.00011629       0.00060975
Ti       0.00119436       6.99672118       8.70104926        0      -0.00022377       0.00001370       0.00095108
Ti       1.51689406       6.12151478      11.31156699        0      -0.00114927       0.00046106       0.00033910
O        0.00197317       6.99567956      12.23159545        3      -0.00039177      -0.00000554       0.16575861
O        1.51259197       6.12413014       7.77329835        1      -0.00054282       0.00015173       0.00061284
C       -1.51575297       7.87248492      10.02001931        2      -0.00045136       0.00011278      -0.00013884
Ti      -1.51460562       9.62287864       8.70197127        0      -0.00053099       0.00002458       0.00119315
Ti      -0.00371942       8.74573892      11.32495996        0      -0.00274603       0.00034797       0.00254664
O       -1.51483351       9.62614334      12.23159545        3      -0.00054096       0.00061131       0.05465303
O       -0.00311328       8.74591119       7.78046148        1      -0.00058098       0.00010474       0.00140579
C        6.06006541       0.00051837      10.00753217        2      -0.00041695       0.00014155       0.00040276
Ti       6.05978598       1.74910061       8.69455511        0      -0.00037510       0.00010819       0.00075703
Ti       7.57456425       0.87473588      11.31215189        0      -0.00117477      -0.00001775      -0.00005842
O        6.05983188       1.75048122      12.23159545        3      -0.00058525       0.00066283       0.13971514
O        7.57380741       0.87368146       7.77311666        1      -0.00044928      -0.00005519       0.00019556
C        4.54487769       2.62487831      10.00431676        2      -0.00053214       0.00033929       0.00010800
Ti       4.54507555       4.37327517       8.69064178        0      -0.00026766       0.00009066       0.00092326
Ti       6.05921501       3.49918009      11.31174381        0      -0.00110658       0.00035487      -0.00086206
O        4.54363080       4.37356307      12.23159545        3      -0.00073868       0.00031753       0.14157265
O        6.06055057       3.49828311       7.77231612        1      -0.00012325      -0.00007291       0.00000826
C        3.03004225       5.24800827      10.00285108        2      -0.00041046       0.00009215       0.00013259
Ti       3.02983370       6.99790606       8.69210587        0      -0.00029266       0.00008790       0.00104712
Ti       4.54376094       6.12216679      11.31161941        0      -0.00036001       0.00001576      -0.00106347
O        3.03137739       6.99807238      12.23159545        3      -0.00009196      -0.00010463       0.13403009
O        4.54589519       6.12360323       7.77215730        1      -0.00052044       0.00012758      -0.00029069
C        1.51570446       7.87146388      10.00603682        2      -0.00035037      -0.00016361       0.00054129
Ti       1.51414507       9.62131395       8.69559658        0      -0.00016145       0.00007146       0.00103152
Ti       3.02918937       8.74669105      11.31198300        0      -0.00077036      -0.00047996      -0.00055825
O        1.51608621       9.62231757      12.23159545        3       0.00056081       0.00048699       0.15355666
O        3.02861365       8.74725934       7.77223966        1      -0.00049552       0.00015015       0.00013060
C        9.08981973       0.00010253      10.00308458        2      -0.00048492      -0.00003109       0.00017334
Ti       9.08969364       1.74941595       8.69100383        0      -0.00022639       0.00004979       0.00041667
Ti      10.60529558       0.87440066      11.31242561        0      -0.00035883      -0.00003192      -0.00106548
O        9.09079984       1.74883067      12.23159545        3      -0.00022799      -0.00000119       0.14023013
O       10.60499743       0.87465287       7.77123954        1      -0.00046358       0.00009917      -0.00048017
C        7.57484367       2.62414474      10.00351048        2      -0.00073714       0.00025369       0.00059159
Ti       7.57521719       4.37363690       8.69399383        0      -0.00039494       0.00005126       0.00082896
Ti       9.08982145       3.49901520      11.31223254        0      -0.00083079       0.00065934      -0.00027235
O        7.57443317       4.37292234      12.23159545        3      -0.00098310      -0.00004426       0.15096653
O        9.09026812       3.50001788       7.77288360        1      -0.00027582       0.00022257       0.00013096
C        6.05929103       5.24782366      10.00431580        2      -0.00068748       0.00012085       0.00013735
Ti       6.06042150       6.99815392       8.69609034        0      -0.00045473      -0.00011628       0.00056684
Ti       7.57119577       6.12293514      11.31653662        0       0.00112876       0.00155887       0.00186015
O        6.05582279       6.99717644      12.23159545        3      -0.00084045       0.00017146       0.13577165
O        7.57705739       6.12450990       7.77623040        1      -0.00006344       0.00018898       0.00099742
C        4.54480533       7.87255967      10.00289966        2      -0.00028985      -0.00000769       0.00047178
Ti       4.54509117       9.62114827       8.69135485        0      -0.00048142       0.00022964       0.00054103
Ti       6.05857895       8.74633098      11.31205399        0       0.00075650       0.00037829       0.00103316
O        4.54419277       9.62166328      12.23159545        3      -0.00080626       0.00022184       0.11662880
O        6.06236240       8.74700197       7.77423660        1      -0.00035621       0.00002455       0.00049435
C        0.04131241       0.06988245      17.53290471       10      -0.00152260      -0.00051239      -0.02808153
C        1.25030129       0.77057712      17.51761266       10       0.00531241      -0.00087312      -0.03382033
C       -1.16907657       2.16819487      17.53822541       10      -0.00049766      -0.00065957      -0.04612005
C        0.04293070       2.86782360      17.52051498       10      -0.00005781      -0.00092929      -0.04676415
C       -2.38059024       4.26487511      17.53290471       10      -0.00045232      -0.00192863      -0.01781946
C       -1.16915831       4.96143328      17.51761266       10      -0.00035613      -0.00017504      -0.01077218
C       -3.58597177       6.36710896      17.46979396       10       0.00058636      -0.00117565       0.00614096
C       -2.38002357       7.04836365      17.42797174       10       0.00020998       0.00279130      -0.10754945
C       -4.79996827       8.47051111      17.46979396       10      -0.00205338      -0.00084437      -0.00637398
C       -3.60664668       9.17363533      17.42797174       10       0.00633236      -0.00132193      -0.12592975
C        2.46549617       0.06256891      17.46979396       10       0.00285685      -0.00366184      -0.00730954
C        3.67988856       0.76755281      17.43771528       10       0.00046465      -0.00039055      -0.07638557
C        1.25540375       2.16876044      17.50656969       10       0.00034850      -0.00114060      -0.04117717
C        2.46686559       2.86653241      17.48465528       10      -0.00028991       0.00134297      -0.03800221
C        0.04391775       4.26673089      17.50656969       10      -0.00003338      -0.00028221      -0.03524215
C        1.25403370       4.96701844      17.48465528       10       0.00076033      -0.00004076      -0.02012652
C       -1.17455510       6.36698386      17.46979396       10      -0.00162750      -0.00001676      -0.00309312
C        0.04301355       7.06660639      17.43771528       10       0.00029955      -0.00081819      -0.03275373
C       -2.37910269       8.46502001      16.97516608       10       0.00122343       0.00077906      -0.28080854
C       -1.15265778       9.17420837      17.42797174       10      -0.00014151      -0.00098706      -0.10262999
C        4.89426578       0.06296675      17.46979396       10       0.00142877      -0.00060701       0.00540875
C        6.10897555       0.77031068      17.51761266       10       0.00126033       0.00014546      -0.04033537
C        3.68009821       2.16406972      17.47004899       10       0.00021191       0.00079801      -0.04079902
C        4.89267899       2.86628418      17.48465528       10       0.00049763       0.00129227      -0.04843137
C        2.46800725       4.26715283      17.48197367       10       0.00028436       0.00101370      -0.03939346
C        3.67959438       4.96700981      17.47697290       10      -0.00078945       0.00019918      -0.05811633
C        1.25234409       6.36835429      17.47004899       10       0.00114921      -0.00042211      -0.04937634
C        2.46688623       7.06759370      17.48465528       10       0.00049287       0.00058409      -0.01441543
C        0.04008372       8.47082575      17.46979396       10       0.00117583      -0.00035725       0.00080655
C        1.26006865       9.16892677      17.51761266       10       0.00091201       0.00116598       0.00090034
C        7.31754053       0.07007791      17.53290471       10       0.00326672       0.00181809      -0.02795414
C        8.52944244       0.76968210      17.53984323       10       0.00307018       0.00179386      -0.02716736
C        6.10406955       2.16847673      17.50656969       10       0.00144714       0.00019669       0.00174156
C        7.31622798       2.86731778      17.52051498       10       0.00210705       0.00006689      -0.04790604
C        4.89187714       4.26713044      17.48197367       10      -0.00119825       0.00108293      -0.00263321
C        6.10543466       4.96673070      17.48465528       10      -0.00091763       0.00013866      -0.04713381
C        3.68002117       6.36620422      17.48197367       10      -0.00065334      -0.00077604      -0.04489616
C        4.89229868       7.06759928      17.48465528       10      -0.00046894      -0.00089452      -0.03796848
C        2.46826753       8.46564803      17.50656969       10       0.00159532       0.00105748      -0.04150298
C        3.67917952       9.16586615      17.52051498       10       0.00097214       0.00115567      -0.04349560
C        9.73904083       0.06903404      17.53822541       10      -0.00051952      -0.00108926      -0.03986951
C       10.94874321       0.76991335      17.53984323       10       0.00458765       0.00033126      -0.04112779
C        8.52749798       2.16796461      17.53822541       10       0.00190252      -0.00060694      -0.01966856
C        9.73935357       2.86536586      17.53984323       10       0.00151527      -0.00197495      -0.02650656
C        7.31554640       4.26662668      17.50656969       10      -0.00133467      -0.00098509       0.01024265
C        8.52875016       4.96146487      17.51761266       10       0.00091187      -0.00306333      -0.04395596
C        6.10731671       6.36808315      17.47004899       10      -0.00018975      -0.00005626      -0.03043490
C        7.31659893       7.06654467      17.43771528       10       0.00146772      -0.00111462      -0.07962208
C        4.89092104       8.46547245      17.50656969       10      -0.00121208      -0.00161921      -0.03842911
C        6.09913136       9.16872884      17.51761266       10       0.00410635       0.00118258      -0.03507869
O       -2.36643430       8.46021866      15.64665399       11      -0.00079870       0.00158086      -0.00433829
