131
Lattice="12.12 0.0 0.0 -6.06 10.496227893867395 0.0 0.0 0.0 40.0" Properties=species:S:1:pos:R:3:tags:I:1:forces:R:3 energy=-1206.0023909925026 stress="0.002912446392386526 8.240462574554959e-08 3.659144803508745e-08 8.240462574554959e-08 0.0029119469128097214 -8.38395460548866e-07 3.659144803508745e-08 -8.38395460548866e-07 0.002646393671312578" pbc="T T F"
C        0.24934528      -0.10641146      10.00771754        2       0.00179193      -0.00288743      -0.00245293
Ti       0.25305040       1.63982766       8.71759395        0      -0.00154473      -0.00086731      -0.00134070
Ti       1.76740288       0.77057344      11.31071408        0      -0.00408758       0.00005954       0.00194189
O        0.24415162       1.64645326      12.23008024        3      -0.00150826      -0.00077509      -0.02915524
O        1.77324550       0.75874912       7.79167400        1      -0.00069441      -0.00200083       0.00251223
C       -1.26214569       2.51543898      10.00202712        2      -0.00295106      -0.00303717      -0.00347731
Ti      -1.26263336       4.26526897       8.71706181        0      -0.00227607      -0.00189895       0.00188476
Ti       0.25355079       3.38988172      11.30389953        0      -0.00155938       0.00184094       0.00378075
O       -1.26129601       4.25372219      12.23008024        3      -0.00044669       0.00108366      -0.03004564
O        0.25255299       3.38960939       7.77802142        1      -0.00143505       0.00037984       0.00590903
C       -2.77684888       5.13498365      10.00762020        2      -0.00135785       0.00372970      -0.00239251
Ti      -2.77687385       6.89159848       8.74630975        0      -0.00057606       0.00305537      -0.00180278
Ti      -1.25823897       6.01069107      11.31050609        0       0.00068127      -0.00110316       0.00227101
O       -2.77689178       6.83689164      12.23008024        3      -0.00032250       0.00266523      -0.21441630
O       -1.26576569       6.02217343       7.79172640        1       0.00010513       0.00129118      -0.00089973
C       -4.28625862       7.76676721      10.04101757        2       0.00067332      -0.00052868      -0.00128073
Ti      -4.28953831       9.51152957       8.74604894        0       0.00204795      -0.00122955      -0.00029762
Ti      -2.77758298       8.63747635      11.41865142        0       0.00217998       0.00132562       0.00113020
O       -4.33630841       9.53827201      12.23008024        3      -0.00046385       0.00001691      -0.21295681
O       -2.77730480       8.63796744       7.80670095        1      -0.00026880       0.00013734      -0.00228579
C        3.28261796      -0.11576843      10.04107321        2       0.00139859       0.00009689      -0.00311046
Ti       3.28292509       1.64237772       8.72372120        0      -0.00026100      -0.00101952      -0.00057728
Ti       4.79831543       0.76959157      11.31084153        0       0.00272265       0.00845106       0.00123783
O        3.28299095       1.65156518      12.23008024        3      -0.00013800      -0.00330966      -0.00551883
O        4.79222063       0.75809474       7.79205367        1       0.00168617       0.00078517      -0.00023117
C        1.76753383       2.51851575      10.00504428        2      -0.00273736      -0.00331255      -0.00388633
Ti       1.76756543       4.26445264       8.71545675        0      -0.00141879      -0.00208585       0.00407387
Ti       3.28316117       3.39345179      11.30429742        0      -0.00118707      -0.00033615       0.00003254
O        1.76776938       4.26420402      12.23008024        3      -0.00159973       0.00201130      -0.05367237
O        3.28340908       3.38386743       7.78053456        1      -0.00094426       0.00179436       0.00181919
C        0.25547273       5.13729630      10.00472065        2      -0.00163221      -0.00150522      -0.00226967
Ti       0.25465614       6.88780719       8.72341165        0      -0.00070504       0.00022701      -0.00015816
Ti       1.77087475       6.01214988      11.30407919        0       0.00351809      -0.00114709       0.00153577
O        0.26248024       6.88293469      12.23008024        3      -0.00178033       0.00113939      -0.00795820
O        1.76365263       6.01706234       7.78025717        1      -0.00511356       0.00154869       0.00314078
C       -1.26821868       7.76642013      10.04068663        2       0.00337236       0.00043495       0.00017517
Ti      -1.26513209       9.51075122       8.74658704        0       0.00010779       0.00178571      -0.00277296
Ti       0.25718221       8.63616315      11.31066940        0       0.00314716      -0.00137757       0.00148612
O       -1.21819113       9.53763383      12.23008024        3       0.00071383       0.00116527      -0.21096853
O        0.24358378       8.63728522       7.79184738        1       0.00092140      -0.00111395      -0.00037738
C        6.31612328      -0.10717725      10.00786776        2      -0.00082328       0.00075502      -0.00328695
Ti       6.31197699       1.63949225       8.71766200        0       0.00393804      -0.00023782      -0.00071834
Ti       7.82896912       0.76651032      11.30690369        0       0.00407371      -0.00030532      -0.00014471
O        6.32158903       1.64582822      12.23008024        3       0.00011220       0.00229651      -0.02697271
O        7.82602138       0.76539826       7.77768257        1      -0.00089123      -0.00370601       0.00832789
C        4.79873173       2.51796881      10.00517576        2      -0.00089159       0.00130894      -0.00386123
Ti       4.79913891       4.26460334       8.71584338        0      -0.00081213      -0.00191839       0.00255067
Ti       6.31276559       3.38963350      11.30427446        0       0.00007598       0.00044300       0.00122377
O        4.79849111       4.26431104      12.23008024        3       0.00005008      -0.00037980      -0.04997553
O        6.31367312       3.38932591       7.77852622        1      -0.00007769       0.00174022       0.00326122
C        3.28333036       5.13938546      10.00192405        2      -0.00168898       0.00050603      -0.00281092
Ti       3.28340418       6.89020812       8.71588292        0      -0.00090204      -0.00082637       0.00180035
Ti       4.79481261       6.01184040      11.30450974        0       0.00005237       0.00264282      -0.00058227
O        3.28294066       6.88914855      12.23008024        3      -0.00046555       0.00001755      -0.05204292
O        4.80369827       6.01760648       7.78062927        1      -0.00255816      -0.00372453       0.00278273
C        1.77072784       7.76243386      10.00488121        2       0.00191472       0.00163655      -0.00238547
Ti       1.76674094       9.51311022       8.71727778        0       0.00041658       0.00240766       0.00123804
Ti       3.28309830       8.63761481      11.30439004        0      -0.00266241       0.00130926       0.00094817
O        1.77718502       9.51739548      12.23008024        3       0.00061670      -0.00046705      -0.02889063
O        3.28293575       8.63959426       7.77824756        1       0.00037802      -0.00270870       0.00658456
C        9.34264811      -0.10852147      10.00219240        2       0.00081416       0.00256037      -0.00396992
Ti       9.34207699       1.64093328       8.71482614        0       0.00497756      -0.00213293       0.00031295
Ti      10.85639411       0.76681575      11.30693522        0       0.00000019       0.00039283      -0.00027272
O        9.34266452       1.64056544      12.23008024        3       0.00124267      -0.00057168      -0.03655178
O       10.85885115       0.76573004       7.77819801        1       0.00455517      -0.00408660       0.00421806
C        7.82752250       2.51534472      10.00223571        2       0.00658772      -0.00428360      -0.00432666
Ti       7.82864061       4.26559731       8.71764017        0       0.00073061      -0.00259327      -0.00124156
Ti       9.34297312       3.38838739      11.30700978        0       0.00158971      -0.00283869      -0.00092145
O        7.82750408       4.25374289      12.23008024        3      -0.00113077       0.00141402      -0.02746435
O        9.34267977       3.39152822       7.77765204        1       0.00129376       0.00385661       0.00731149
C        6.31091546       5.13717168      10.00516601        2      -0.00042131       0.00043574      -0.00338982
Ti       6.31187325       6.88834370       8.72410488        0      -0.00057029      -0.00027676      -0.00328525
Ti       7.82446687       6.01096213      11.31065269        0      -0.00436932      -0.00491230       0.00300345
O        6.30338993       6.88309775      12.23008024        3       0.00315766       0.00066663      -0.00558785
O        7.83190082       6.02242661       7.79191200        1      -0.00141674      -0.00003363       0.00067570
C        4.79506195       7.76263750      10.00528017        2       0.00029570       0.00199773      -0.00429935
Ti       4.79893571       9.51373857       8.71787609        0      -0.00117876      -0.00025625      -0.00262236
Ti       6.30858834       8.63604959      11.31083264        0      -0.00404751       0.00319567       0.00207479
O        4.78844884       9.51752299      12.23008024        3      -0.00024589       0.00126617      -0.02801669
O        6.32195330       8.63759658       7.79185025        1       0.00014767      -0.00092863       0.00229768
C       -0.35488110       0.24008748      16.11033687       10       0.00633418       0.00383634       0.03655229
C        0.85585433       0.93954657      16.09504482       10      -0.00513250       0.00198679       0.05543965
C       -1.56512047       2.33873744      16.11565757       10      -0.00038653       0.00215707      -0.01818816
C       -0.35309767       3.03844086      16.09794714       10      -0.00238305      -0.00060461       0.05545043
C       -2.77747154       4.43590961      16.11033687       10       0.00056429       0.00324040       0.03674536
C       -1.56634670       5.13460596      16.09504482       10       0.00284560       0.00125375       0.05518529
C       -3.98371652       6.53901333      16.04722612       10      -0.00793145       0.00274580       0.03801430
C       -2.77717202       7.21993470      16.00540390       10      -0.00082945      -0.00328056      -0.38742998
C       -5.19685934       8.63977282      16.04722612       10       0.00235783       0.00287816       0.03807024
C       -4.00388225       9.34430485      16.00540390       10      -0.00467882       0.00576260      -0.38658511
C        2.06976660       0.23349173      16.04722612       10       0.00142800       0.00230304       0.03827866
C        3.28264107       0.93756090      16.01514744       10       0.00365404       0.00707608       0.19953111
C        0.85872939       2.33784274      16.08400185       10       0.00137746       0.00188519       0.00646607
C        2.07048481       3.03729216      16.06208744       10      -0.00301739       0.00075268       0.00537463
C       -0.35382769       4.43823566      16.08400185       10      -0.00074247      -0.00279664       0.00659738
C        0.85767649       5.13809515      16.06208744       10      -0.00494323      -0.00152034       0.00536693
C       -1.57065758       6.53897591      16.04722612       10       0.00128216       0.00357281       0.03828837
C       -0.35469757       7.23774745      16.01514744       10       0.00421700      -0.00529344       0.19962237
C       -2.77733711       8.63632761      15.55259824       10       0.00179139      -0.00199463       0.61313745
C       -1.55081233       9.34468218      16.00540390       10       0.00387067       0.00406532      -0.38973126
C        4.49575609       0.23393638      16.04722612       10      -0.00292657      -0.00567903       0.03775367
C        5.70978266       0.93995579      16.09504482       10      -0.00238409       0.00083181       0.05509618
C        3.28263967       2.33463180      16.04748115       10      -0.00274309       0.00602817      -0.03924210
C        4.49467613       3.03746411      16.06208744       10       0.00492608      -0.00214344       0.00531707
C        2.07007848       4.43762704      16.05940583       10      -0.00193031      -0.00302232       0.04052461
C        3.28250357       5.13784093      16.05440506       10       0.00130607      -0.00179045      -0.01393174
C        0.85516905       6.53921147      16.04748115       10       0.00399537      -0.00149288      -0.03919506
C        2.06968116       7.23775737      16.06208744       10       0.00376890      -0.00192084       0.00528024
C       -0.35789323       8.64021690      16.04722612       10       0.00386275      -0.00440011       0.03819166
C        0.86060254       9.33850128      16.09504482       10       0.00225823       0.00261450       0.05540994
C        6.92048454       0.24051985      16.11033687       10      -0.00444446      -0.00614380       0.03651809
C        8.13202238       0.93966049      16.11727539       10      -0.00561122       0.00072319       0.03684893
C        5.70655072       2.33819726      16.08400185       10       0.00096651       0.00000514       0.00650901
C        6.91845853       3.03859793      16.09794714       10      -0.00102675      -0.00463168       0.05547343
C        4.49501241       4.43773083      16.05940583       10       0.00204314      -0.00237263       0.04054574
C        5.70752565       5.13806570      16.06208744       10       0.00170157      -0.00322943       0.00538029
C        3.28254128       6.53797332      16.05940583       10       0.00123984      -0.00279012       0.04054185
C        4.49556191       7.23747447      16.06208744       10      -0.00308887       0.00170719       0.00523826
C        2.07001816       8.63677712      16.08400185       10      -0.00026274      -0.00026378       0.00644432
C        3.28275730       9.33573525      16.09794714       10      -0.00021799       0.00519623       0.05549474
C        9.34295238       0.23896675      16.11565757       10      -0.00238974       0.00425442      -0.01843026
C       10.55385538       0.93972849      16.11727539       10      -0.00391986      -0.00495977       0.03680997
C        8.13038519       2.33865996      16.11565757       10       0.00231402       0.00429119      -0.01828782
C        9.34250304       3.03716672      16.11727539       10       0.00711894      -0.00415754       0.03683218
C        6.91901571       4.43830682      16.08400185       10       0.00439047      -0.00091458       0.00654620
C        8.13147930       5.13476249      16.09504482       10       0.00371232      -0.00392371       0.05543833
C        5.71015377       6.53907049      16.04748115       10      -0.00342146      -0.00229140      -0.03919899
C        6.92014502       7.23746253      16.01514744       10      -0.00665990      -0.00350077       0.19937841
C        4.49528323       8.63644483      16.08400185       10       0.00237641       0.00434849       0.00656712
C        5.70478355       9.33813317      16.09504482       10      -0.00620025       0.00093821       0.05546012
O       -2.77808363       8.63571415      14.21089562       11       0.00164361       0.00151351       0.00488378
