131
Lattice="12.12 0.0 0.0 -6.06 10.496227893867395 0.0 0.0 0.0 40.0" Properties=species:S:1:pos:R:3:tags:I:1:forces:R:3 energy=-1204.5636019553247 stress="0.0028845995029295485 -3.44099368193479e-07 2.3405888630820136e-06 -3.44099368193479e-07 0.0028844855000229094 -3.6666582990906927e-07 2.3405888630820136e-06 -3.6666582990906927e-07 0.002094591012199338" pbc="T T F"
C       -0.00009693       0.00011202      10.00363502        2       0.00057538      -0.00020244      -0.00128304
Ti       0.00060415       1.74903895       8.71193627        0       0.00051564       0.00011861       0.00021144
Ti       1.51594689       0.87555793      11.29467523        0       0.00027107      -0.00071441      -0.00000656
O       -0.00107479       1.75047789      12.23008024        3       0.00068580       0.00010787       0.11876012
O        1.51640193       0.87244875       7.77601396        1      -0.00019976       0.00124694      -0.00132372
C       -1.51481771       2.62397628      10.00169488        2       0.00040720       0.00012381       0.00011184
Ti      -1.51481759       4.37397867       8.71276202        0       0.00050160       0.00011636       0.00038833
Ti       0.00065078       3.49892611      11.29169240        0       0.00030262       0.00026749      -0.00036857
O       -1.51412623       4.36987111      12.23008024        3       0.00039541       0.00039884       0.12246744
O       -0.00037833       3.49872064       7.77230494        1       0.00059590       0.00004337       0.00057112
C       -3.02978419       5.24737310      10.00522851        2       0.00024605       0.00045998      -0.00130359
Ti      -3.02998217       6.99799697       8.72116878        0       0.00040147      -0.00015437      -0.00408991
Ti      -1.51399486       6.12331354      11.30155554        0      -0.00047294       0.00084336       0.00072061
O       -3.03096281       6.99049924      12.23008024        3       0.00032269       0.00011265       0.09620007
O       -1.51604036       6.12497632       7.77770437        1       0.00108937      -0.00125632      -0.00157745
C       -4.54453161       7.87193958      10.01111049        2       0.00092941       0.00028110      -0.00310179
Ti      -4.54409922       9.62099470       8.71992073        0       0.00026378      -0.00000830      -0.00385832
Ti      -3.02742886       8.74575446      11.32831251        0       0.00029378      -0.00004687      -0.00239556
O       -4.55100604       9.62482049      12.23008024        3       0.00007277       0.00024884       0.12522933
O       -3.02913512       8.74664390       7.78306678        1       0.00001729      -0.00001604      -0.00556678
C        3.03061166      -0.00034719      10.01184423        2       0.00034445      -0.00069396      -0.00339416
Ti       3.03028307       1.74947970       8.71408939        0       0.00041097      -0.00058965       0.00018919
Ti       4.54532275       0.87549103      11.29706598        0      -0.00006228      -0.00120789       0.00036378
O        3.02960532       1.75313350      12.23008024        3       0.00005972      -0.00059804       0.09799331
O        4.54439791       0.87191890       7.77692421        1       0.00074382       0.00140726      -0.00149318
C        1.51512614       2.62461534      10.00226431        2       0.00072606      -0.00000244      -0.00008924
Ti       1.51502105       4.37332608       8.71139018        0       0.00042968       0.00018218      -0.00044757
Ti       3.03022599       3.49963943      11.29159603        0       0.00036279      -0.00025054      -0.00024973
O        1.51525698       4.37344561      12.23008024        3       0.00030442       0.00013145       0.11007919
O        3.02997236       3.49705107       7.77236299        1       0.00033452       0.00089632       0.00034119
C        0.00065540       5.24745592      10.00334733        2       0.00036489       0.00044709      -0.00031372
Ti       0.00033003       6.99736950       8.71578908        0      -0.00007276       0.00016120       0.00008966
Ti       1.51620728       6.12211346      11.29157443        0       0.00010876       0.00011802      -0.00004257
O        0.00432410       6.99477704      12.23008024        3      -0.00008776       0.00018811       0.10617338
O        1.51325893       6.12383306       7.77313974        1       0.00127363      -0.00056736       0.00037249
C       -1.51497035       7.87227734      10.01372197        2      -0.00027342       0.00031411      -0.00361098
Ti      -1.51535564       9.62133296       8.72171265        0       0.00043286      -0.00009666      -0.00444834
Ti       0.00018166       8.74591735      11.30242166        0      -0.00099680       0.00021507       0.00067370
O       -1.50948223       9.62572458      12.23008024        3       0.00001986      -0.00005595       0.08509511
O       -0.00237387       8.74694253       7.77805254        1       0.00176493      -0.00022181      -0.00177379
C        6.06093716       0.00041526      10.00592876        2      -0.00023782      -0.00029659      -0.00149297
Ti       6.05987043       1.74916712       8.71254211        0       0.00002995       0.00000253       0.00042327
Ti       7.57553643       0.87484015      11.29227347        0      -0.00004886      -0.00026530      -0.00023732
O        6.06304215       1.75221952      12.23008024        3      -0.00007927       0.00000743       0.12298163
O        7.57444624       0.87409271       7.77268104        1       0.00062343       0.00017536       0.00029634
C        4.54545003       2.62519780      10.00242280        2      -0.00017682      -0.00023207      -0.00013504
Ti       4.54527379       4.37331511       8.71120812        0       0.00019226      -0.00000172      -0.00126863
Ti       6.05996755       3.49907772      11.29148110        0      -0.00002569      -0.00002428      -0.00045790
O        4.54559075       4.37356259      12.23008024        3       0.00055184      -0.00025914       0.11537485
O        6.06071907       3.49824512       7.77214969        1       0.00006489       0.00018698       0.00065078
C        3.03042756       5.24791600      10.00104177        2       0.00045625      -0.00011041       0.00068122
Ti       3.03008669       6.99758474       8.71138974        0       0.00015988      -0.00025808      -0.00056779
Ti       4.54432195       6.12241734      11.29155022        0       0.00049950      -0.00005223      -0.00029225
O        3.02994103       6.99714968      12.23008024        3       0.00022465      -0.00003587       0.11231529
O        4.54627343       6.12366087       7.77216592        1      -0.00041362      -0.00047804       0.00044109
C        1.51597614       7.87199886      10.00355702        2      -0.00012590      -0.00030263      -0.00039435
Ti       1.51465155       9.62124132       8.71309534        0       0.00025738      -0.00033577       0.00026408
Ti       3.03022547       8.74636265      11.29166539        0       0.00007893      -0.00027386      -0.00040877
O        1.51895494       9.62279916      12.23008024        3      -0.00003983      -0.00042519       0.12652091
O        3.02971103       8.74734192       7.77239773        1       0.00042941      -0.00039023       0.00057251
C        9.09027383       0.00007742      10.00182409        2       0.00016742      -0.00031102       0.00008096
Ti       9.09015090       1.74935309       8.71109793        0       0.00025577      -0.00001052      -0.00075797
Ti      10.60533407       0.87460683      11.29219212        0       0.00009292      -0.00000290      -0.00024505
O        9.09098475       1.74945705      12.23008024        3       0.00013417      -0.00003604       0.10089538
O       10.60564553       0.87439716       7.77197514        1      -0.00002158       0.00007864       0.00025879
C        7.57542274       2.62402764      10.00171247        2       0.00000118       0.00002067       0.00005236
Ti       7.57520198       4.37372934       8.71218567        0       0.00010678       0.00019862       0.00059559
Ti       9.09032573       3.49866966      11.29207310        0       0.00024449       0.00008005      -0.00020747
O        7.57469606       4.37073395      12.23008024        3       0.00004345       0.00021214       0.12360631
O        9.09029763       3.49949062       7.77241498        1       0.00024019      -0.00037470       0.00040187
C        6.05931903       5.24744804      10.00202234        2       0.00015798       0.00039246       0.00004599
Ti       6.06004353       6.99727839       8.71353190        0       0.00083685       0.00016219       0.00048531
Ti       7.57427468       6.12255348      11.29577351        0       0.00114102       0.00060279       0.00042925
O        6.05671362       6.99596167      12.23008024        3       0.00078798       0.00040828       0.09655068
O        7.57710262       6.12479344       7.77631802        1      -0.00076172      -0.00115319      -0.00111017
C        4.54452857       7.87191146      10.00210199        2       0.00055075      -0.00046783       0.00005034
Ti       4.54556082       9.62133170       8.71180090        0       0.00030635      -0.00040584       0.00036552
Ti       6.05943108       8.74564331      11.29404851        0       0.00107495       0.00028958       0.00031297
O        4.54369386       9.62223164      12.23008024        3       0.00046345      -0.00040131       0.10747780
O        6.06264093       8.74705343       7.77571320        1      -0.00111266      -0.00040090      -0.00111512
C        0.04101778       0.06986126      17.38928424       10       0.00607529       0.00089587       0.00766982
C        1.25158247       0.76940141      17.37399219       10      -0.00048863      -0.00173041       0.02668637
C       -1.16885981       2.16812487      17.39460494       10      -0.00175120       0.00162942      -0.01865139
C        0.04297517       2.86790905      17.37689451       10      -0.00123746       0.00113570      -0.00286446
C       -2.38074944       4.26530821      17.38928424       10      -0.00447884       0.00126985      -0.01015986
C       -1.16984113       4.96415993      17.37399219       10      -0.00111810       0.00084029       0.01188523
C       -3.58784712       6.36780715      17.32617349       10      -0.00331306       0.00105209      -0.03019626
C       -2.38094918       7.04995549      17.28435127       10       0.00052720      -0.00075905      -0.47033755
C       -4.80166784       8.46944361      17.32617349       10       0.00311068      -0.00037592      -0.02619304
C       -3.60774942       9.17409657      17.28435127       10      -0.00122733      -0.00184183      -0.44909585
C        2.46532449       0.06415549      17.32617349       10       0.00272563      -0.00254344      -0.02994027
C        3.67886188       0.76664487      17.29409481       10       0.00357198       0.00215399       0.16570364
C        1.25448760       2.16756010      17.36294922       10       0.00065591      -0.00084348      -0.02592465
C        2.46672479       2.86657992      17.34103481       10      -0.00040340       0.00088454      -0.05153218
C        0.04233883       4.26735457      17.36294922       10       0.00023046      -0.00101796      -0.03787492
C        1.25406305       4.96719230      17.34103481       10      -0.00244699       0.00048181      -0.05452562
C       -1.17386535       6.36803161      17.32617349       10       0.00096627       0.00147055      -0.02569119
C        0.04161458       7.06719906      17.29409481       10      -0.00054296      -0.00138442       0.15025194
C       -2.38180404       8.46605346      16.83154561       10       0.00127041      -0.00247309       0.22345201
C       -1.15508098       9.17351912      17.28435127       10       0.00031118       0.00228539      -0.47124832
C        4.89219707       0.06365645      17.32617349       10      -0.00040878      -0.00348196      -0.02978296
C        6.10614521       0.76881543      17.37399219       10       0.00053959       0.00190980       0.02331999
C        3.67919286       2.16394774      17.32642852       10      -0.00240550       0.00179385      -0.08883927
C        4.89179533       2.86634967      17.34103481       10      -0.00140111       0.00062260      -0.04591291
C        2.46657218       4.26676580      17.33835320       10      -0.00231955       0.00013845      -0.01411050
C        3.67943776       4.96675513      17.33335243       10      -0.00125324       0.00155056      -0.04264150
C        1.25174745       6.36844525      17.32642852       10       0.00032372      -0.00020597      -0.08882020
C        2.46642585       7.06698663      17.34103481       10       0.00063419       0.00133834      -0.05426686
C        0.03919190       8.46931536      17.32617349       10      -0.00080580      -0.00202954      -0.02642029
C        1.25704798       9.16760212      17.37399219       10      -0.00050161       0.00445937       0.01289735
C        7.31673410       0.06949914      17.38928424       10      -0.00163006      -0.00193228      -0.00252607
C        8.52809719       0.76890193      17.39622276       10      -0.00039469       0.00114500      -0.02807489
C        6.10378629       2.16706210      17.36294922       10      -0.00163670       0.00329458      -0.03560716
C        7.31537679       2.86747815      17.37689451       10      -0.00255358      -0.00088768      -0.00291268
C        4.89228457       4.26652841      17.33835320       10      -0.00123976       0.00145325      -0.01707794
C        6.10463690       4.96700990      17.34103481       10      -0.00244934       0.00119614      -0.04327921
C        3.67929421       6.36715535      17.33835320       10      -0.00186865      -0.00035694      -0.01073911
C        4.89199754       7.06700560      17.34103481       10      -0.00089738       0.00134793      -0.05078715
C        2.46669659       8.46629343      17.36294922       10      -0.00309050      -0.00163189      -0.03497258
C        3.67896310       9.16537831      17.37689451       10      -0.00015524       0.00274364      -0.00243679
C        9.73895032       0.06855969      17.39460494       10       0.00197228      -0.00028626      -0.02103843
C       10.94976320       0.76923924      17.39622276       10      -0.00114025      -0.00194882      -0.01223584
C        8.52720471       2.16780499      17.39460494       10      -0.00326276       0.00245083      -0.02177440
C        9.73910784       2.86652929      17.39622276       10       0.00243885      -0.00136156      -0.02735290
C        7.31612446       4.26692681      17.36294922       10      -0.00262200       0.00027497      -0.03693203
C        8.52824024       4.96394225      17.37399219       10       0.00250605      -0.00075193       0.02404742
C        6.10674072       6.36838958      17.32642852       10      -0.00147567      -0.00254391      -0.09038908
C        7.31671319       7.06719484      17.29409481       10       0.00036197      -0.00239832       0.16442592
C        4.89130034       8.46639138      17.36294922       10       0.00144367      -0.00071364      -0.02914912
C        6.10072196       9.16799475      17.37399219       10      -0.00285748      -0.00265055       0.02512293
O       -2.38603505       8.46756443      15.47758884       11       0.00317909      -0.00092702      -0.00188018
