130
Lattice="12.12 0.0 0.0 -6.06 10.496227893867395 0.0 0.0 0.0 40.0" Properties=species:S:1:pos:R:3:tags:I:1:forces:R:3 energy=-1200.7350196749824 stress="0.0028274702441213645 1.289726686713723e-07 -1.1512113647758373e-10 1.289726686713723e-07 0.002827208512223126 -2.530525605140619e-07 -1.1512113647758373e-10 -2.530525605140619e-07 0.002190178789346295" pbc="T T F"
C        0.00007346       0.00011369      10.00092544        2      -0.00011008       0.00001414       0.00131141
Ti       0.00001474       1.74938661       8.69016940        0      -0.00003168       0.00011860      -0.00065778
Ti       1.51483762       0.87465378      11.30543946        0      -0.00016498      -0.00012032      -0.00232283
O       -0.00039819       1.75125784      12.23159545        3       0.00035756      -0.00015051       0.00672051
O        1.51498573       0.87470433       7.76751569        1      -0.00018912      -0.00014473      -0.00232733
C       -1.51466669       2.62375917      10.00002592        2      -0.00010110       0.00020429       0.00091669
Ti      -1.51487948       4.37342828       8.69013488        0      -0.00003572      -0.00007434      -0.00106763
Ti      -0.00001227       3.49901876      11.30432386        0       0.00027842       0.00062147      -0.00327297
O       -1.51528323       4.37251767      12.23159545        3       0.00018142       0.00032370      -0.02269744
O        0.00004790       3.49872669       7.76751000        1      -0.00011980      -0.00009093      -0.00262257
C       -3.02949530       5.24838894      10.00018634        2      -0.00016697      -0.00012937       0.00101797
Ti      -3.02992938       6.99759581       8.69009808        0      -0.00013600       0.00005903      -0.00091794
Ti      -1.51543480       6.12259537      11.30433019        0      -0.00032016      -0.00031853      -0.00245268
O       -3.03095724       6.99787050      12.23159545        3       0.00024196      -0.00026533      -0.02838982
O       -1.51494115       6.12283318       7.76735815        1      -0.00011791      -0.00005643      -0.00261514
C       -4.54500668       7.87265739       9.99996718        2       0.00004932      -0.00029256       0.00088047
Ti      -4.54498264       9.62157208       8.69013765        0       0.00016873      -0.00008825      -0.00050645
Ti      -3.02989687       8.74685104      11.30413584        0       0.00060619      -0.00030826      -0.00333391
O       -4.54394257       9.62041450      12.23159545        3      -0.00003566       0.00007058       0.00036661
O       -3.02999849       8.74690230       7.76743180        1      -0.00010968       0.00003497      -0.00258601
C        3.02956973      -0.00008141      10.00017463        2       0.00046180      -0.00001882       0.00083175
Ti       3.02988277       1.74931704       8.69027036        0      -0.00028737      -0.00026236      -0.00110920
Ti       4.54483830       0.87467801      11.30415950        0      -0.00017105       0.00027460      -0.00284751
O        3.02974666       1.74893539      12.23159545        3      -0.00008519       0.00025750      -0.01926038
O        4.54503750       0.87466354       7.76757363        1       0.00000766      -0.00000669      -0.00259656
C        1.51471262       2.62370560      10.00023992        2       0.00013407       0.00034042       0.00067657
Ti       1.51491554       4.37344108       8.69023092        0      -0.00002102      -0.00005773      -0.00135774
Ti       3.02989256       3.49845432      11.30423357        0       0.00012682      -0.00017730      -0.00253108
O        1.51546871       4.37259199      12.23159545        3       0.00029614       0.00054589      -0.02320664
O        3.02999524       3.49881661       7.76760638        1       0.00009158      -0.00007416      -0.00252737
C        0.00002757       5.24842187      10.00037967        2       0.00014228      -0.00019868       0.00090627
Ti       0.00001219       6.99747769       8.68992072        0      -0.00010466      -0.00001536      -0.00162902
Ti       1.51525752       6.12265865      11.30438043        0       0.00034392      -0.00024951      -0.00199519
O       -0.00041129       6.99687662      12.23159545        3      -0.00010060      -0.00002510      -0.03976431
O        1.51497953       6.12279696       7.76739641        1       0.00000083       0.00004354      -0.00264161
C       -1.51470742       7.87212938      10.00046329        2       0.00007249      -0.00014588       0.00081405
Ti      -1.51502808       9.62147259       8.69011953        0      -0.00006915       0.00002562      -0.00098126
Ti      -0.00004081       8.74705119      11.30447215        0       0.00021318      -0.00019747      -0.00215268
O       -1.51553961       9.62239285      12.23159545        3       0.00051805      -0.00028226      -0.02828372
O       -0.00000907       8.74683251       7.76733901        1       0.00002491       0.00004431      -0.00257794
C        6.05998712      -0.00062985      10.00022639        2      -0.00006314       0.00027738       0.00102908
Ti       6.05997206       1.74923069       8.69049921        0       0.00001520      -0.00019125      -0.00092751
Ti       7.57512829       0.87467697      11.30411204        0      -0.00020764       0.00002260      -0.00295417
O        6.05983954       1.74881163      12.23159545        3       0.00003505       0.00018798      -0.05992243
O        7.57493109       0.87463810       7.76752631        1      -0.00000105       0.00000116      -0.00258754
C        4.54464351       2.62379290      10.00044293        2       0.00002322      -0.00007703       0.00128668
Ti       4.54486194       4.37346343       8.69057136        0      -0.00013252       0.00005379      -0.00107511
Ti       6.06007916       3.49879104      11.30503589        0      -0.00008660       0.00012859      -0.00128312
O        4.54423481       4.37350082      12.23159545        3      -0.00007873       0.00015012      -0.06050358
O        6.05997997       3.49874223       7.76763337        1       0.00004942      -0.00001341      -0.00199161
C        3.02946731       5.24837069      10.00026488        2       0.00022884      -0.00017167       0.00079421
Ti       3.02992438       6.99756083       8.69017020        0       0.00015877       0.00005901      -0.00121433
Ti       4.54506762       6.12295355      11.30413063        0       0.00001652      -0.00034312      -0.00270756
O        3.03103603       6.99770968      12.23159545        3      -0.00039293      -0.00038989      -0.03580708
O        4.54490589       6.12275578       7.76754229        1       0.00012504      -0.00006997      -0.00252637
C        1.51470497       7.87208099      10.00061673        2       0.00007988      -0.00018497       0.00095804
Ti       1.51502744       9.62145197       8.69009278        0       0.00005921       0.00010556      -0.00102796
Ti       3.02997586       8.74687109      11.30408282        0      -0.00045402      -0.00044899      -0.00333950
O        1.51562273       9.62241219      12.23159545        3      -0.00037675      -0.00040785      -0.03564412
O        3.03000675       8.74684911       7.76743335        1      -0.00000236       0.00009003      -0.00263325
C        9.09034488      -0.00019398      10.00006757        2      -0.00029887      -0.00003260       0.00085055
Ti       9.09012546       1.74929341       8.69018394        0       0.00026903      -0.00019886      -0.00088709
Ti      10.60501475       0.87465832      11.30520350        0       0.00036026      -0.00012513      -0.00249914
O        9.09040409       1.74873420      12.23159545        3      -0.00016548      -0.00009208      -0.02250641
O       10.60504105       0.87466865       7.76750655        1       0.00015683      -0.00010433      -0.00236587
C        7.57530952       2.62375515      10.00053298        2      -0.00010125      -0.00002507       0.00115144
Ti       7.57509170       4.37347309       8.69053969        0       0.00019295       0.00008900      -0.00080904
Ti       9.09016123       3.49843663      11.30412092        0       0.00002570      -0.00028639      -0.00268594
O        7.57598697       4.37379029      12.23159545        3      -0.00023041      -0.00015381      -0.06143266
O        9.08995979       3.49880924       7.76751276        1      -0.00003845      -0.00001780      -0.00250323
C        6.05994867       5.24849321      10.00062266        2      -0.00003078      -0.00017563       0.00129099
Ti       6.05997700       6.99762821       8.69021944        0       0.00002820       0.00043772      -0.00092086
Ti       7.57492514       6.12305238      11.30410395        0      -0.00037145      -0.00008142      -0.00272722
O        6.05986846       6.99827369      12.23159545        3      -0.00024554      -0.00014211      -0.02636037
O        7.57503689       6.12274023       7.76750453        1      -0.00003707      -0.00002366      -0.00252794
C        4.54497525       7.87260500      10.00003046        2      -0.00020721      -0.00023436       0.00073646
Ti       4.54497390       9.62153849       8.69014491        0      -0.00018137      -0.00009535      -0.00050646
Ti       6.06000320       8.74686905      11.30513012        0       0.00004180       0.00004332      -0.00262831
O        4.54418172       9.62083888      12.23159545        3       0.00001830       0.00008358      -0.00650959
O        6.05998780       8.74689270       7.76751267        1       0.00004601       0.00023171      -0.00234243
C        0.04481347       0.06751373      16.73685861       10       0.00378695       0.00060072       0.01523603
C        1.25684374       0.76722975      16.73685861       10       0.00316457       0.00232971      -0.00102231
C       -1.16664930       2.16671367      16.73685861       10       0.00017486       0.00009904       0.01744259
C        0.04508891       2.86632122      16.73685861       10      -0.00188306       0.00099835       0.00751921
C       -2.37843821       4.26595623      16.73685861       10       0.00134487      -0.00118153       0.00464460
C       -1.16727865       4.96524642      16.73685861       10       0.00096712       0.00114319       0.00630430
C       -3.59085172       6.36581441      16.73685861       10       0.00309083      -0.00096762       0.00422545
C       -2.37960791       7.06494855      16.73685861       10       0.00136747      -0.00087717       0.00794882
C       -4.80280852       8.46488568      16.73685861       10      -0.00063070      -0.00100963       0.01618255
C       -3.59109738       9.16432568      16.73685861       10      -0.00031171      -0.00077328       0.00780956
C        2.46864093       0.06731806      16.73685861       10       0.00342070       0.00200700       0.01638321
C        3.68055218       0.76748349      16.73685861       10       0.00295703       0.00071486       0.01310566
C        1.25683337       2.16664099      16.73685861       10      -0.00095594       0.00204059       0.01709128
C        2.46903143       2.86629154      16.73685861       10      -0.00079045      -0.00036856       0.01552194
C        0.04501588       4.26573359      16.73685861       10       0.00001779       0.00101609       0.01789199
C        1.25714376       4.96519161      16.73685861       10       0.00015547       0.00000246       0.00489437
C       -1.16695478       6.36522098      16.73685861       10       0.00076697       0.00183592       0.00226247
C        0.04491495       7.06501854      16.73685861       10       0.00012865      -0.00108868       0.02164748
C       -2.37909740       8.46465984      16.73685861       10      -0.00031888      -0.00054150       0.01477978
C       -1.16736787       9.16476702      16.73685861       10      -0.00051712      -0.00150297       0.00657602
C        4.89241266       0.06722636      16.73685861       10       0.00187550       0.00110804       0.00568087
C        6.10486619       0.76741387      16.73685861       10       0.00156385       0.00155266       0.01953160
C        3.68053632       2.16653597      16.73685861       10      -0.00122653      -0.00048145       0.01081274
C        4.89291895       2.86650129      16.73685861       10      -0.00074620      -0.00096052       0.01390023
C        2.46846534       4.26585077      16.73685861       10      -0.00013285      -0.00045594       0.00556213
C        3.68109838       4.96562948      16.73685861       10      -0.00009287       0.00064122       0.01951117
C        1.25684506       6.36515322      16.73685861       10       0.00062913       0.00106534      -0.00091759
C        2.46950207       7.06487649      16.73685861       10       0.00125060       0.00057467       0.00985142
C        0.04501748       8.46461544      16.73685861       10      -0.00157508      -0.00148648      -0.00388228
C        1.25739685       9.16478915      16.73685861       10      -0.00179676      -0.00097667       0.01033813
C        7.31731763       0.06720122      16.73685861       10       0.00056844       0.00167926       0.00546912
C        8.52929532       0.76751043      16.73685861       10       0.00031939       0.00079700       0.01249663
C        6.10504600       2.16616215      16.73685861       10      -0.00030352       0.00113726       0.01341257
C        7.31734757       2.86652625      16.73685861       10      -0.00096778      -0.00180794       0.01310452
C        4.89257585       4.26626703      16.73685861       10      -0.00037347       0.00010092       0.01700135
C        6.10503963       4.96619700      16.73685861       10      -0.00005291      -0.00103018       0.01184221
C        3.68077739       6.36571723      16.73685861       10       0.00086357       0.00053036       0.00521718
C        4.89322672       7.06538262      16.73685861       10       0.00112352      -0.00191272       0.01419708
C        2.46927843       8.46461852      16.73685861       10      -0.00284879      -0.00061172       0.01103761
C        3.68132945       9.16441970      16.73685861       10      -0.00333394      -0.00183324       0.00801811
C        9.74117790       0.06735592      16.73685861       10       0.00025587       0.00096907       0.01581877
C       10.95291579       0.76732810      16.73685861       10       0.00063093       0.00122039       0.00116555
C        8.52976774       2.16645036      16.73685861       10      -0.00144962       0.00109727       0.00800534
C        9.74126325       2.86632409      16.73685861       10      -0.00307728       0.00101294       0.01831332
C        7.31740423       4.26629530      16.73685861       10      -0.00094227      -0.00114950       0.02039459
C        8.52897883       4.96571742      16.73685861       10      -0.00120259       0.00114192       0.02032756
C        6.10492154       6.36622944      16.73685861       10       0.00199480      -0.00098524       0.00715866
C        7.31681088       7.06531241      16.73685861       10      -0.00009582       0.00000597       0.01732872
C        4.89308899       8.46497432      16.73685861       10      -0.00307844      -0.00215396       0.01521667
C        6.10520210       9.16429646      16.73685861       10      -0.00378036      -0.00036835       0.00269175
