131
Lattice="12.12 0.0 0.0 -6.06 10.496227893867395 0.0 0.0 0.0 40.0" Properties=species:S:1:pos:R:3:tags:I:1:forces:R:3 energy=-1204.129706082507 stress="0.002876936542980216 -3.6352695235944455e-07 -2.4611263452135533e-06 -3.6352695235944455e-07 0.0028769980288967344 1.1235442938101935e-06 -2.4611263452135533e-06 1.1235442938101935e-06 0.0019735192002958654" pbc="T T F"
C       -0.00052202       0.00023062      10.00160432        2      -0.00000900       0.00000689      -0.00088700
Ti       0.00017529       1.74927302       8.71054437        0      -0.00011794       0.00023250       0.00012022
Ti       1.51489527       0.87560231      11.29236565        0      -0.00032548      -0.00020979      -0.00032947
O       -0.00130315       1.74977186      12.23008024        3      -0.00011265       0.00022962       0.06876368
O        1.51577268       0.87328738       7.77344378        1      -0.00071041       0.00114759      -0.00085940
C       -1.51513697       2.62400871      10.00102094        2      -0.00025115       0.00030580      -0.00006755
Ti      -1.51501957       4.37398143       8.71209414        0      -0.00012981       0.00020436       0.00013000
Ti       0.00009007       3.49881098      11.29132743        0      -0.00036577       0.00044134      -0.00018150
O       -1.51473338       4.36981924      12.23008024        3      -0.00025144       0.00024916       0.09908484
O       -0.00062273       3.49913251       7.77144417        1       0.00009250       0.00004751       0.00042186
C       -3.03016370       5.24779393      10.00407912        2      -0.00021365       0.00057320      -0.00135598
Ti      -3.03017639       6.99776267       8.71814038        0      -0.00020185       0.00004219      -0.00348208
Ti      -1.51522855       6.12356352      11.29968868        0      -0.00087953       0.00103726       0.00031683
O       -3.03189219       6.99337812      12.23008024        3      -0.00040497       0.00038122       0.08177967
O       -1.51580147       6.12458363       7.77616258        1       0.00035590      -0.00080184      -0.00158071
C       -4.54541499       7.87216031      10.00713691        2       0.00017545       0.00039000      -0.00252201
Ti      -4.54461174       9.62124402       8.71571707        0      -0.00032961       0.00014778      -0.00270480
Ti      -3.02992667       8.74691621      11.31735279        0      -0.00034536       0.00023590      -0.00132889
O       -4.55070607       9.62451788      12.23008024        3      -0.00045648       0.00050081       0.07237559
O       -3.02924725       8.74651226       7.77940909        1      -0.00056221       0.00020137      -0.00426632
C        3.02979555       0.00018857      10.00748368        2      -0.00030360      -0.00032361      -0.00273831
Ti       3.03007149       1.74948141       8.71218670        0      -0.00017814      -0.00039344       0.00017740
Ti       4.54414846       0.87502038      11.29598314        0      -0.00067327      -0.00084367       0.00041564
O        3.02879377       1.75234138      12.23008024        3      -0.00042046      -0.00028985       0.08115251
O        4.54461779       0.87266079       7.77488202        1       0.00004788       0.00138212      -0.00123153
C        1.51469065       2.62444027      10.00103321        2       0.00006018       0.00015086      -0.00009276
Ti       1.51483255       4.37350418       8.71071225        0      -0.00011380       0.00018762      -0.00034831
Ti       3.02989950       3.49923104      11.29111277        0      -0.00017715      -0.00005596       0.00002850
O        1.51495510       4.37259271      12.23008024        3      -0.00038805       0.00007591       0.09348709
O        3.02977241       3.49784771       7.77136757        1      -0.00017003       0.00077673       0.00035610
C        0.00027953       5.24764043      10.00286215        2      -0.00019870       0.00056517      -0.00041205
Ti       0.00010524       6.99743466       8.71491622        0      -0.00051802       0.00024994      -0.00054413
Ti       1.51555729       6.12238908      11.29179360        0      -0.00045294       0.00031611      -0.00009267
O        0.00260353       6.99553371      12.23008024        3      -0.00060121       0.00028998       0.09145021
O        1.51329197       6.12375898       7.77246567        1       0.00066281      -0.00041716       0.00006317
C       -1.51556974       7.87250658      10.01104326        2      -0.00063143       0.00038980      -0.00313625
Ti      -1.51531320       9.62150763       8.71841580        0      -0.00018034       0.00009012      -0.00363487
Ti      -0.00087977       8.74659476      11.30058769        0      -0.00129269       0.00030696       0.00027298
O       -1.51252538       9.62508545      12.23008024        3      -0.00050195       0.00015765       0.07005253
O       -0.00196547       8.74672427       7.77637413        1       0.00083525      -0.00001038      -0.00173296
C        6.06021960       0.00026292      10.00444397        2      -0.00063493      -0.00021411      -0.00143098
Ti       6.05964717       1.74926840       8.71178386        0      -0.00048523       0.00008633       0.00030984
Ti       7.57486490       0.87489620      11.29189499        0      -0.00054414      -0.00009446      -0.00012187
O        6.06113642       1.75061455      12.23008024        3      -0.00077166      -0.00015638       0.08870389
O        7.57430372       0.87421431       7.77205080        1       0.00000990       0.00035375       0.00012295
C        4.54501710       2.62501568      10.00154707        2      -0.00049678       0.00005628      -0.00009666
Ti       4.54499933       4.37339778       8.71049966        0      -0.00028540       0.00010223      -0.00097138
Ti       6.05949868       3.49902072      11.29121833        0      -0.00042717       0.00010487      -0.00035525
O        4.54427110       4.37364478      12.23008024        3      -0.00027974       0.00001941       0.08584293
O        6.06046204       3.49840485       7.77154850        1      -0.00048400       0.00026897       0.00040498
C        3.02998943       5.24807410      10.00066592        2      -0.00019172       0.00011224       0.00049203
Ti       3.02983740       6.99757317       8.71079690        0      -0.00032548      -0.00005751      -0.00053561
Ti       4.54441570       6.12248808      11.29126002        0      -0.00006111       0.00016390      -0.00021729
O        3.03053719       6.99769422      12.23008024        3      -0.00021901       0.00026303       0.08352916
O        4.54553853       6.12337462       7.77130013        1      -0.00075392      -0.00027004       0.00035992
C        1.51550657       7.87207520      10.00305231        2      -0.00058841      -0.00010895      -0.00047790
Ti       1.51447493       9.62129177       8.71234310        0      -0.00025300      -0.00007344      -0.00007772
Ti       3.02976711       8.74671933      11.29141935        0      -0.00040137       0.00000620      -0.00030135
O        1.51836098       9.62330172      12.23008024        3      -0.00028198       0.00004743       0.09465961
O        3.02922858       8.74719251       7.77149893        1       0.00003117      -0.00018663       0.00039736
C        9.08991556       0.00017090      10.00105446        2      -0.00037749      -0.00005622      -0.00006597
Ti       9.08984769       1.74944017       8.71058032        0      -0.00027945       0.00011539      -0.00058350
Ti      10.60492215       0.87465116      11.29171138        0      -0.00037295       0.00020714      -0.00015266
O        9.09068112       1.74918723      12.23008024        3      -0.00032158       0.00014616       0.09237186
O       10.60500241       0.87468251       7.77087048        1      -0.00042636       0.00016837       0.00027394
C        7.57491254       2.62414497      10.00145545        2      -0.00059766       0.00023972       0.00011362
Ti       7.57494666       4.37376377       8.71168486        0      -0.00040112       0.00030870       0.00017901
Ti       9.08976925       3.49878966      11.29176338        0      -0.00028069       0.00031925      -0.00013923
O        7.57460740       4.37188201      12.23008024        3      -0.00030521       0.00049897       0.08544981
O        9.09004927       3.49949640       7.77191603        1      -0.00032319      -0.00021756       0.00014954
C        6.05917694       5.24762785      10.00148486        2      -0.00035788       0.00030995      -0.00003041
Ti       6.05992488       6.99732402       8.71188393        0       0.00015367       0.00034863       0.00037261
Ti       7.57393529       6.12342096      11.29533503        0       0.00054087       0.00074097       0.00019761
O        6.05674810       6.99712265      12.23008024        3       0.00022708       0.00041533       0.08194558
O        7.57650623       6.12410492       7.77459283        1      -0.00122444      -0.00076693      -0.00112557
C        4.54437073       7.87216207      10.00092515        2      -0.00002016      -0.00021089       0.00006840
Ti       4.54505237       9.62147710       8.71032320        0      -0.00020978      -0.00016025       0.00046621
Ti       6.05843636       8.74637905      11.29128383        0       0.00052037       0.00037558       0.00059927
O        4.54383556       9.62247556      12.23008024        3      -0.00006920      -0.00004221       0.07253785
O        6.06153456       8.74693293       7.77322086        1      -0.00138980      -0.00009425      -0.00063731
C        0.04148491       0.06974154      17.67349477       10       0.00674926       0.00050685       0.00485756
C        1.25218349       0.76916232      17.65820272       10       0.00060120      -0.00210906       0.02477010
C       -1.16851321       2.16800124      17.67881547       10      -0.00049617       0.00093222      -0.02327868
C        0.04338999       2.86767231      17.66110504       10      -0.00022651       0.00091437      -0.01177001
C       -2.38043436       4.26504017      17.67349477       10      -0.00357470       0.00062383       0.00731177
C       -1.16940186       4.96369124      17.65820272       10      -0.00043818       0.00063464       0.03502183
C       -3.58750538       6.36753227      17.61038402       10      -0.00255870       0.00053447      -0.02439744
C       -2.38040903       7.04894089      17.56856180       10       0.00109936      -0.00073737      -0.44598885
C       -4.80073970       8.46935677      17.61038402       10       0.00407672      -0.00082998      -0.02752142
C       -3.60686591       9.17374208      17.56856180       10       0.00010557      -0.00230244      -0.47020079
C        2.46607541       0.06362901      17.61038402       10       0.00350906      -0.00273418      -0.02788970
C        3.67941982       0.76663188      17.57830534       10       0.00437076       0.00181452       0.17449041
C        1.25496879       2.16732706      17.64715975       10       0.00169514      -0.00133029      -0.02804670
C        2.46709935       2.86650373      17.62524534       10       0.00059866       0.00075048      -0.03466552
C        0.04274668       4.26702238      17.64715975       10       0.00107333      -0.00143612      -0.01799012
C        1.25440236       4.96705775      17.62524534       10      -0.00172395       0.00031067      -0.03630242
C       -1.17340412       6.36751255      17.61038402       10       0.00147685       0.00109240      -0.02520400
C        0.04201500       7.06702765      17.57830534       10       0.00007564      -0.00150234       0.17354942
C       -2.38000298       8.46546119      17.11575614       10       0.00215364      -0.00268714       0.25493538
C       -1.15349534       9.17399691      17.56856180       10       0.00104531       0.00167643      -0.43932367
C        4.89291140       0.06388999      17.61038402       10       0.00027973      -0.00351697      -0.02132553
C        6.10680428       0.76897872      17.65820272       10       0.00128700       0.00144568       0.02278896
C        3.67961911       2.16392179      17.61063905       10      -0.00144551       0.00178066      -0.08791213
C        4.89210494       2.86637142      17.62524534       10      -0.00022056       0.00033831      -0.04474841
C        2.46688795       4.26666050      17.62256373       10      -0.00147773      -0.00002209      -0.00145933
C        3.67960656       4.96680949      17.61756296       10      -0.00042114       0.00125867      -0.04864572
C        1.25214235       6.36833130      17.61063905       10       0.00109430      -0.00045128      -0.08654722
C        2.46683383       7.06699850      17.62524534       10       0.00139465       0.00110677      -0.03354925
C        0.04010738       8.46934215      17.61038402       10       0.00034066      -0.00219652      -0.02256052
C        1.25786626       9.16771965      17.65820272       10       0.00061167       0.00402384       0.03850915
C        7.31730757       0.06964298      17.67349477       10      -0.00066067      -0.00188657       0.00478688
C        8.52859005       0.76891423      17.68043329       10       0.00062564       0.00096378      -0.01166481
C        6.10421652       2.16710240      17.64715975       10      -0.00056508       0.00299401      -0.01280472
C        7.31580870       2.86744824      17.66110504       10      -0.00120412      -0.00106519      -0.00668937
C        4.89245885       4.26658293      17.62256373       10      -0.00052133       0.00117062       0.00476679
C        6.10491070       4.96699217      17.62524534       10      -0.00161256       0.00101004      -0.04211019
C        3.67966971       6.36715813      17.62256373       10      -0.00118375      -0.00076887      -0.00600481
C        4.89234341       7.06703409      17.62524534       10      -0.00014951       0.00128129      -0.03431741
C        2.46735437       8.46635370      17.64715975       10      -0.00196179      -0.00187336      -0.02209223
C        3.67951140       9.16540225      17.66110504       10       0.00108038       0.00246722      -0.00690832
C        9.73939536       0.06855292      17.67881547       10       0.00276072      -0.00055285      -0.01617609
C       10.95017941       0.76914867      17.68043329       10      -0.00018216      -0.00213249      -0.01812509
C        8.52757334       2.16778685      17.67881547       10      -0.00206363       0.00197436      -0.00701388
C        9.73947962       2.86637040      17.68043329       10       0.00349764      -0.00160669      -0.00851032
C        7.31652004       4.26689429      17.64715975       10      -0.00181886      -0.00007414      -0.01361415
C        8.52862644       4.96369842      17.65820272       10       0.00331389      -0.00098293       0.01868983
C        6.10707468       6.36834041      17.61063905       10      -0.00093866      -0.00296088      -0.08088750
C        7.31709827       7.06708051      17.57830534       10       0.00099926      -0.00247605       0.17458802
C        4.89185378       8.46636574      17.64715975       10       0.00231886      -0.00104537      -0.02336981
C        6.10131756       9.16785795      17.65820272       10      -0.00155836      -0.00283548       0.02441131
O       -2.37302708       8.46272287      15.76407901       11       0.00196681      -0.00052624      -0.00300789
