130
Lattice="12.12 0.0 0.0 -6.06 10.496227893867395 0.0 0.0 0.0 40.0" Properties=species:S:1:pos:R:3:tags:I:1:forces:R:3 energy=-1200.5998682430768 stress="0.0027967159496004087 5.3742285536882444e-08 3.6704385524555083e-09 5.3742285536882444e-08 0.0027966357326509143 4.3218478892167365e-07 3.6704385524555083e-09 4.3218478892167365e-07 0.002402325776323056" pbc="T T F"
C        0.00001167      -0.00000348       9.99902509        2       0.00005809       0.00007350       0.00119911
Ti       0.00002302       1.74932663       8.69321848        0      -0.00001189      -0.00000605       0.00201956
Ti       1.51412685       0.87423415      11.31038850        0      -0.00052793      -0.00011606      -0.00049499
O        0.00050647       1.74690310      12.23159545        3      -0.00000751       0.00010022      -0.00398844
O        1.51534344       0.87485828       7.76935937        1       0.00083387       0.00037407       0.00201628
C       -1.51487817       2.62399706      10.00099621        2       0.00063892      -0.00012328       0.00272091
Ti      -1.51506304       4.37331813       8.69448161        0      -0.00030480       0.00003580       0.00521284
Ti       0.00016310       3.49763160      11.31021270        0       0.00018553      -0.00082661       0.00124440
O       -1.51364760       4.37242624      12.23159545        3       0.00136401       0.00059146      -0.04958570
O       -0.00003956       3.49921794       7.76953752        1      -0.00019252       0.00059215       0.00289799
C       -3.02979363       5.24825829      10.00230410        2       0.00089166       0.00038432       0.00457319
Ti      -3.03015410       6.99744277       8.69443775        0      -0.00020908      -0.00016359       0.00563376
Ti      -1.51435483       6.12311352      11.31116104        0       0.00077189       0.00029586       0.00325266
O       -3.02996258       6.99891535      12.23159545        3       0.00130185       0.00106790      -0.04826138
O       -1.51509093       6.12277271       7.76981200        1      -0.00064680      -0.00020964       0.00389995
C       -4.54495766       7.87232749      10.00124958        2       0.00011174       0.00059334       0.00296714
Ti      -4.54504362       9.62160108       8.69334943        0       0.00003265      -0.00007115       0.00256491
Ti      -3.03060439       8.74757427      11.31032491        0      -0.00040560       0.00054998       0.00100658
O       -4.54663162       9.62328925      12.23159545        3       0.00026184       0.00030645      -0.01060855
O       -3.02965372       8.74656687       7.76953431        1       0.00036072      -0.00051829       0.00307152
C        3.02993728      -0.00001894      10.00066700        2      -0.00024979       0.00006151       0.00239612
Ti       3.03002196       1.74940297       8.69465041        0       0.00060403       0.00034485       0.00498455
Ti       4.54416369       0.87383443      11.31404833        0      -0.00047397      -0.00040329       0.00392672
O        3.02807506       1.74849577      12.23159545        3      -0.00093878      -0.00040380      -0.04115801
O        4.54539001       0.87491382       7.77021168        1       0.00105985       0.00084717       0.00532405
C        1.51495301       2.62399592      10.00060672        2      -0.00036791      -0.00004580       0.00266151
Ti       1.51509148       4.37332868       8.69428156        0       0.00016041       0.00010792       0.00442005
Ti       3.02885960       3.49846264      11.31417056        0      -0.00107982       0.00008553       0.00419754
O        1.51381675       4.37216332      12.23159545        3      -0.00105186       0.00056959      -0.04694859
O        3.03039170       3.49900252       7.77028738        1       0.00126551       0.00057045       0.00539655
C        0.00002004       5.24800365      10.00109023        2       0.00023385       0.00032674       0.00239167
Ti      -0.00001202       6.99748490       8.69330240        0       0.00000034       0.00008772       0.00344172
Ti       1.51447900       6.12301256      11.31050667        0      -0.00055761      -0.00001865       0.00200764
O        0.00005274       6.99772899      12.23159545        3       0.00042443       0.00026002      -0.02661326
O        1.51509316       6.12284420       7.76974014        1       0.00041827      -0.00005972       0.00334850
C       -1.51506567       7.87229656      10.00102128        2       0.00054352      -0.00002401       0.00223619
Ti      -1.51502002       9.62168368       8.69403644        0       0.00012024       0.00011484       0.00455566
Ti      -0.00002725       8.74656490      11.30960372        0      -0.00018518      -0.00027719       0.00194008
O       -1.51648280       9.62147356      12.23159545        3      -0.00004452      -0.00109205      -0.04339213
O        0.00006246       8.74688568       7.76958463        1       0.00001453       0.00039768       0.00300202
C        6.05999665      -0.00014129      10.00194344        2      -0.00007994      -0.00061096       0.00381551
Ti       6.05998425       1.74955005       8.69570138        0       0.00004276       0.00056322       0.00874607
Ti       7.57567488       0.87383780      11.31434761        0       0.00058183      -0.00066619       0.00379113
O        6.05977294       1.74838427      12.23159545        3      -0.00023865      -0.00107550      -0.02417769
O        7.57471586       0.87491911       7.77033461        1      -0.00077067       0.00103036       0.00564840
C        4.54503384       2.62404805      10.00239455        2      -0.00066456      -0.00015595       0.00548213
Ti       4.54508695       4.37334331       8.69582138        0       0.00055780      -0.00018837       0.00884278
Ti       6.05994335       3.49865497      11.31618284        0      -0.00028373       0.00008983       0.00501817
O        4.54398619       4.37358179      12.23159545        3      -0.00125944       0.00048053      -0.02259274
O        6.06003273       3.49882952       7.77099496        1       0.00030435       0.00028248       0.00773110
C        3.02981232       5.24823683      10.00211290        2      -0.00076163       0.00026517       0.00438140
Ti       3.03017168       6.99741868       8.69426883        0       0.00020396      -0.00014082       0.00488593
Ti       4.54454021       6.12376045      11.31456674        0      -0.00084116       0.00078030       0.00463421
O        3.03003811       6.99860459      12.23159545        3      -0.00131751       0.00091380      -0.04249276
O        4.54508524       6.12245355       7.77044966        1       0.00052523      -0.00099889       0.00609083
C        1.51501162       7.87224625      10.00095629        2      -0.00025703      -0.00012025       0.00218871
Ti       1.51502455       9.62169333       8.69407059        0      -0.00009440       0.00028780       0.00460696
Ti       3.03050513       8.74735376      11.31002830        0       0.00007348       0.00014891       0.00141195
O        1.51609014       9.62140875      12.23159545        3      -0.00018272      -0.00127706      -0.04005724
O        3.02965475       8.74661646       7.76957636        1      -0.00032203      -0.00027584       0.00300568
C        9.09013684       0.00000939      10.00104011        2       0.00006712      -0.00039150       0.00259782
Ti       9.08999148       1.74941008       8.69494036        0      -0.00053410       0.00039119       0.00606112
Ti      10.60622027       0.87418716      11.31112136        0       0.00068282      -0.00031913       0.00006793
O        9.09212381       1.74860040      12.23159545        3       0.00102331      -0.00060812      -0.04363745
O       10.60458492       0.87486436       7.76949067        1      -0.00103538       0.00048751       0.00250987
C        7.57498401       2.62406220      10.00254188        2       0.00033786      -0.00029621       0.00577242
Ti       7.57491162       4.37335445       8.69585399        0      -0.00032333      -0.00009514       0.00939054
Ti       9.09109988       3.49859820      11.31463590        0       0.00094500       0.00002508       0.00391219
O        7.57574500       4.37369891      12.23159545        3       0.00085350       0.00062157      -0.02032468
O        9.08964469       3.49894713       7.77044336        1      -0.00126694       0.00052485       0.00600798
C        6.06002048       5.24810038      10.00263199        2      -0.00027845       0.00052592       0.00603827
Ti       6.06001583       6.99746724       8.69513775        0       0.00006325      -0.00069065       0.00664461
Ti       7.57545939       6.12378546      11.31475701        0       0.00047673       0.00069559       0.00441272
O        6.06015918       6.99980106      12.23159545        3      -0.00008159       0.00127335      -0.04385025
O        7.57493741       6.12242197       7.77049033        1      -0.00027214      -0.00115106       0.00633838
C        4.54502059       7.87233003      10.00124420        2      -0.00042248       0.00037440       0.00312632
Ti       4.54505303       9.62159202       8.69350059        0      -0.00003504      -0.00006020       0.00289605
Ti       6.06009053       8.74829981      11.31164033        0      -0.00005495       0.00092178       0.00073071
O        4.54667288       9.62282984      12.23159545        3       0.00005924       0.00038555      -0.01908393
O        6.05996325       8.74636315       7.76957378        1      -0.00001290      -0.00125879       0.00294227
C        0.04485485       0.06758904      16.45264808       10       0.00388748       0.00032013      -0.00660208
C        1.25653385       0.76694259      16.45264808       10       0.00332256       0.00347924       0.02622626
C       -1.16668092       2.16610317      16.45264808       10       0.00274555       0.00004277      -0.00683206
C        0.04502216       2.86588550      16.45264808       10      -0.00091170       0.00162625       0.00808680
C       -2.37792082       4.26592433      16.45264808       10       0.00218174      -0.00189110       0.00655533
C       -1.16706620       4.96508776      16.45264808       10       0.00084982       0.00187275      -0.00515805
C       -3.59034825       6.36627859      16.45264808       10       0.00296620      -0.00147328       0.00845953
C       -2.37938382       7.06509449      16.45264808       10       0.00022179      -0.00105502      -0.00510544
C       -4.80312015       8.46541443      16.45264808       10      -0.00053137      -0.00196927      -0.00621249
C       -3.59133640       9.16451951      16.45264808       10       0.00057759      -0.00083819       0.00450988
C        2.46803649       0.06745140      16.45264808       10       0.00316779       0.00314246      -0.00717611
C        3.68011133       0.76702062      16.45264808       10       0.00258902       0.00148545       0.00639005
C        1.25662792       2.16591579      16.45264808       10       0.00002318       0.00266834      -0.00712895
C        2.46846432       2.86587667      16.45264808       10       0.00022454       0.00012046       0.00665164
C        0.04516775       4.26492378      16.45264808       10      -0.00020436       0.00168496       0.00268741
C        1.25709992       4.96524405      16.45264808       10      -0.00030651       0.00021887      -0.00644354
C       -1.16656263       6.36521728      16.45264808       10      -0.00045691       0.00302295       0.02889683
C        0.04506487       7.06485690      16.45264808       10      -0.00130378      -0.00088581      -0.01007207
C       -2.37950153       8.46507380      16.45264808       10      -0.00012725      -0.00038585       0.00747358
C       -1.16720596       9.16447581      16.45264808       10      -0.00034137      -0.00216571      -0.00824345
C        4.89226907       0.06652210      16.45264808       10       0.00112576       0.00238519       0.00952572
C        6.10471162       0.76770749      16.45264808       10       0.00163475       0.00111070       0.00500845
C        3.67983663       2.16599489      16.45264808       10      -0.00050440      -0.00020940       0.00038582
C        4.89240900       2.86633171      16.45264808       10       0.00108765      -0.00210166       0.01382483
C        2.46791814       4.26584612      16.45264808       10      -0.00001609      -0.00015544       0.00714858
C        3.68129992       4.96550197      16.45264808       10       0.00032905      -0.00043873       0.00649742
C        1.25687450       6.36522663      16.45264808       10      -0.00103535       0.00163573       0.03085496
C        2.46952426       7.06517256      16.45264808       10       0.00032386      -0.00031565      -0.00752897
C        0.04512311       8.46429878      16.45264808       10      -0.00167078      -0.00128012       0.03338632
C        1.25740829       9.16460832      16.45264808       10      -0.00126679      -0.00247154      -0.00935088
C        7.31730946       0.06649161      16.45264808       10       0.00043263       0.00210671       0.01172091
C        8.52944842       0.76726237      16.45264808       10       0.00050312      -0.00001575       0.00620307
C        6.10467110       2.16602590      16.45264808       10       0.00150810       0.00073472       0.00128727
C        7.31705873       2.86649338      16.45264808       10       0.00078238      -0.00320002       0.01659289
C        4.89227530       4.26621770      16.45264808       10       0.00060941      -0.00064349       0.00069725
C        6.10493860       4.96608829      16.45264808       10       0.00024242      -0.00160316       0.01926960
C        3.68035447       6.36630268      16.45264808       10      -0.00041538      -0.00074144       0.01114682
C        4.89339167       7.06581282      16.45264808       10      -0.00050758      -0.00291935       0.00703553
C        2.46988791       8.46512616      16.45264808       10      -0.00294221      -0.00188166       0.01337355
C        3.68170183       9.16476199      16.45264808       10      -0.00340721      -0.00341608       0.00108183
C        9.74175577       0.06759855      16.45264808       10      -0.00033400       0.00060923      -0.00638270
C       10.95312476       0.76707780      16.45264808       10       0.00062701       0.00206181       0.02407083
C        8.52974632       2.16606196      16.45264808       10       0.00012294       0.00075860       0.00210836
C        9.74138813       2.86584768      16.45264808       10      -0.00296344       0.00149522       0.00566187
C        7.31739449       4.26629306      16.45264808       10      -0.00077876      -0.00189183       0.00153622
C        8.52871278       4.96549026      16.45264808       10      -0.00227448       0.00192023       0.00839583
C        6.10492562       6.36651038      16.45264808       10       0.00066390      -0.00159084       0.00286717
C        7.31680712       7.06571652      16.45264808       10      -0.00267362      -0.00003425       0.00617478
C        4.89356629       8.46560233      16.45264808       10      -0.00358556      -0.00364246      -0.00538410
C        6.10521418       9.16468799      16.45264808       10      -0.00400093      -0.00035412       0.02285395
