130
Lattice="12.12 0.0 0.0 -6.06 10.496227893867395 0.0 0.0 0.0 40.0" Properties=species:S:1:pos:R:3:tags:I:1:forces:R:3 energy=-1201.9945884357653 stress="0.0028982861338973684 -2.5134416286373414e-08 -1.6004045239451493e-07 -2.5134416286373414e-08 0.002898434605655402 2.2921934963159346e-07 -1.6004045239451493e-07 2.2921934963159346e-07 0.0023990761870078727" pbc="T T F"
C       -0.00003134      -0.00004634      10.00464938        2      -0.00007036       0.00020448      -0.00292719
Ti      -0.00000654       1.74936029       8.71534841        0      -0.00009879      -0.00023450      -0.00109247
Ti       1.51509328       0.87472665      11.29833077        0      -0.00065640      -0.00087495       0.00367847
O        0.00011592       1.74837479      12.23008024        3       0.00051599       0.00053011       0.11352054
O        1.51503458       0.87473765       7.77665796        1      -0.00003690      -0.00001353       0.00105575
C       -1.51497919       2.62405327      10.00499175        2       0.00002793       0.00036567      -0.00229105
Ti      -1.51500250       4.37346151       8.71557360        0      -0.00013385       0.00001765      -0.00080167
Ti       0.00000225       3.49835261      11.29844849        0      -0.00066984      -0.00126210       0.00295132
O       -1.51473952       4.37363791      12.23008024        3       0.00030586       0.00040246       0.08948390
O       -0.00006027       3.49885372       7.77686055        1      -0.00000112       0.00001998       0.00072079
C       -3.02994293       5.24819180      10.00522478        2       0.00006582      -0.00010884      -0.00228792
Ti      -3.02999376       6.99747267       8.71560287        0      -0.00009211       0.00019865      -0.00095291
Ti      -1.51507934       6.12278044      11.29838801        0      -0.00103468      -0.00004265       0.00331914
O       -3.02981066       6.99774462      12.23008024        3       0.00036664      -0.00027931       0.08672064
O       -1.51500774       6.12279826       7.77694496        1      -0.00002152       0.00004606       0.00070301
C       -4.54501532       7.87222350      10.00498181        2       0.00007862      -0.00026929      -0.00271225
Ti      -4.54501139       9.62154730       8.71526566        0      -0.00011425      -0.00004983      -0.00116694
Ti      -3.03033400       8.74710448      11.29836867        0      -0.00106105       0.00033968       0.00363818
O       -4.54535595       9.62196085      12.23008024        3       0.00007342       0.00034091       0.10592848
O       -3.02995371       8.74674709       7.77678987        1      -0.00005403       0.00007125       0.00106289
C        3.02997497      -0.00004611      10.00475178        2       0.00039115       0.00026693      -0.00248958
Ti       3.03002147       1.74939433       8.71515492        0      -0.00021017      -0.00025277      -0.00050319
Ti       4.54475412       0.87482743      11.29793175        0      -0.00020254      -0.00044377       0.00291040
O        3.02997527       1.74930991      12.23008024        3       0.00044346       0.00071240       0.09548486
O        4.54509565       0.87474627       7.77680071        1      -0.00013111       0.00001249       0.00075624
C        1.51490111       2.62405017      10.00485549        2       0.00034181       0.00060657      -0.00213880
Ti       1.51496836       4.37347788       8.71544305        0      -0.00016317      -0.00009536      -0.00034755
Ti       3.02983587       3.49857616      11.29806331        0      -0.00002673      -0.00072783       0.00246062
O        1.51466849       4.37364077      12.23008024        3       0.00027540       0.00032147       0.09263700
O        3.03005745       3.49885481       7.77687480        1      -0.00005162      -0.00003736       0.00052224
C       -0.00000298       5.24818810      10.00503370        2       0.00031314       0.00013031      -0.00185052
Ti       0.00000923       6.99752213       8.71581626        0      -0.00017181       0.00011365      -0.00066031
Ti       1.51521870       6.12270923      11.29856355        0       0.00000834       0.00032614       0.00225595
O        0.00031343       6.99808793      12.23008024        3       0.00024481      -0.00002960       0.08574712
O        1.51495627       6.12282028       7.77687526        1      -0.00000340       0.00001198       0.00050250
C       -1.51495485       7.87221754      10.00498369        2       0.00033556      -0.00008004      -0.00233379
Ti      -1.51498211       9.62152209       8.71544318        0      -0.00020559      -0.00004405      -0.00074308
Ti       0.00003475       8.74723181      11.29868549        0      -0.00022146       0.00069612       0.00314625
O       -1.51505248       9.62141255      12.23008024        3       0.00040218       0.00000130       0.09181948
O       -0.00000176       8.74680255       7.77683498        1      -0.00004165       0.00005672       0.00064420
C        6.05999785      -0.00002464      10.00488617        2      -0.00002403       0.00007660      -0.00202769
Ti       6.05999691       1.74942647       8.71573024        0       0.00003993      -0.00013976      -0.00056371
Ti       7.57510232       0.87486983      11.29807769        0       0.00076959       0.00003968       0.00301472
O        6.05988058       1.74912520      12.23008024        3      -0.00034083       0.00037229       0.08977328
O        7.57491938       0.87477671       7.77684872        1       0.00003068       0.00002839       0.00073261
C        4.54490550       2.62404035      10.00502328        2      -0.00003534       0.00030177      -0.00166717
Ti       4.54501351       4.37342250       8.71583980        0       0.00006036       0.00009970      -0.00044308
Ti       6.05981724       3.49868233      11.29929960        0       0.00076732      -0.00014798       0.00240448
O        4.54475282       4.37343156      12.23008024        3      -0.00033534      -0.00008738       0.09314586
O        6.06003552       3.49882635       7.77719075        1      -0.00006657      -0.00000070       0.00034803
C        3.02990196       5.24818592      10.00498734        2      -0.00007257      -0.00007975      -0.00142972
Ti       3.02997516       6.99749637       8.71553159        0       0.00009073       0.00028789      -0.00054296
Ti       4.54506512       6.12286425      11.29832434        0       0.00085227       0.00110435       0.00277573
O        3.02993547       6.99789075      12.23008024        3      -0.00043371      -0.00049951       0.08796853
O        4.54500003       6.12271450       7.77694187        1       0.00000926       0.00004896       0.00059841
C        1.51499966       7.87224041      10.00489819        2      -0.00015236      -0.00036519      -0.00196564
Ti       1.51499129       9.62153896       8.71550291        0       0.00008241       0.00010298      -0.00076764
Ti       3.03038728       8.74710497      11.29840239        0       0.00102694       0.00112619       0.00328260
O        1.51527784       9.62147635      12.23008024        3      -0.00023334      -0.00034455       0.09034496
O        3.02993723       8.74680299       7.77673366        1      -0.00000051       0.00004486       0.00086780
C        9.09000921       0.00001248      10.00474911        2      -0.00034559       0.00002349      -0.00244133
Ti       9.08995329       1.74940300       8.71530672        0       0.00013339      -0.00009460      -0.00079725
Ti      10.60492190       0.87469397      11.29812144        0       0.00007364      -0.00035146       0.00364536
O        9.08982866       1.74926605      12.23008024        3      -0.00060300       0.00025770       0.09474813
O       10.60489276       0.87478653       7.77666248        1       0.00003918       0.00000703       0.00113184
C        7.57500691       2.62407559      10.00516709        2      -0.00036824       0.00017461      -0.00206038
Ti       7.57496167       4.37341546       8.71606329        0       0.00010431       0.00017142      -0.00083409
Ti       9.09008172       3.49865229      11.29842397        0       0.00004679      -0.00071533       0.00305286
O        7.57474751       4.37336753      12.23008024        3      -0.00046139      -0.00012479       0.09412369
O        9.08991803       3.49887780       7.77702026        1       0.00001245      -0.00002769       0.00073265
C        6.05997524       5.24814326      10.00523601        2      -0.00030764      -0.00030105      -0.00197585
Ti       6.05998535       6.99743239       8.71541284        0       0.00011083       0.00031111      -0.00087056
Ti       7.57487444       6.12297426      11.29852752        0       0.00003815       0.00068573       0.00334881
O        6.05981079       6.99745222      12.23008024        3      -0.00043516      -0.00081830       0.09399075
O        7.57503489       6.12269049       7.77704136        1      -0.00006074       0.00011667       0.00081166
C        4.54500793       7.87223218      10.00483553        2      -0.00035395      -0.00052919      -0.00237721
Ti       4.54498832       9.62154424       8.71517917        0       0.00017417       0.00011135      -0.00102374
Ti       6.05996916       8.74687435      11.29801931        0       0.00012947       0.00067116       0.00392781
O        4.54514906       9.62176631      12.23008024        3      -0.00038344      -0.00024486       0.09851712
O        6.06000596       8.74668726       7.77665134        1       0.00002628       0.00009484       0.00126311
C        0.04505237       0.06758972      16.59323813       10      -0.00566544      -0.00396856      -0.02253145
C        1.25702726       0.76728464      16.59323813       10       0.00646349       0.00204096      -0.03798257
C       -1.16711271       2.16696738      16.59323813       10       0.00113572      -0.00814256      -0.02731761
C        0.04500147       2.86644853      16.59323813       10       0.00049083       0.00191489      -0.03538553
C       -2.37886178       4.26609222      16.59323813       10       0.00193312      -0.00420846      -0.03240839
C       -1.16688293       4.96563491      16.59323813       10       0.00071569       0.00168094      -0.02897422
C       -3.59073082       6.36537978      16.59323813       10       0.00153845      -0.00622134      -0.03212598
C       -2.37879068       7.06496786      16.59323813       10      -0.00188804       0.00469102      -0.02833147
C       -4.80285505       8.46447211      16.59323813       10      -0.00462162      -0.00329634      -0.02934418
C       -3.59106429       9.16430646      16.59323813       10       0.00571849      -0.00100012      -0.03776862
C        2.46920441       0.06747357      16.59323813       10      -0.00250199       0.00336789      -0.02697820
C        3.68111048       0.76724955      16.59323813       10      -0.00207555      -0.00399838      -0.03247797
C        1.25705771       2.16689555      16.59323813       10      -0.00118473      -0.00387968      -0.02743108
C        2.46902009       2.86644453      16.59323813       10      -0.00054315       0.00153760      -0.03456086
C        0.04511389       4.26611385      16.59323813       10      -0.00120280      -0.00161410      -0.03147687
C        1.25706617       4.96563936      16.59323813       10       0.00022639       0.00104045      -0.02771619
C       -1.16674175       6.36521325      16.59323813       10      -0.00611180      -0.00328128      -0.02542733
C        0.04520498       7.06489131      16.59323813       10      -0.00209225       0.00105048      -0.03500346
C       -2.37879099       8.46443173      16.59323813       10      -0.00255229       0.00110672      -0.03228805
C       -1.16696742       9.16428007      16.59323813       10      -0.00032937      -0.00868540      -0.02711743
C        4.89316303       0.06725847      16.59323813       10      -0.00020874       0.00859862      -0.02937926
C        6.10505294       0.76729776      16.59323813       10      -0.00328707      -0.00413325      -0.03191221
C        3.68093603       2.16670795      16.59323813       10       0.00218449      -0.00035141      -0.03832860
C        4.89289739       2.86657411      16.59323813       10       0.00000166      -0.00190184      -0.01888952
C        2.46895223       4.26605386      16.59323813       10       0.00236150       0.00191646      -0.02958211
C        3.68101900       4.96587082      16.59323813       10      -0.00229089      -0.00197471      -0.02742483
C        1.25718146       6.36516276      16.59323813       10       0.00012704       0.00171797      -0.02542178
C        2.46910698       7.06503611      16.59323813       10      -0.00218538       0.00027444      -0.02763920
C        0.04500855       8.46437319      16.59323813       10       0.00339952       0.00406448      -0.02320480
C        1.25699221       9.16425642      16.59323813       10       0.00032400      -0.00870295      -0.02703764
C        7.31689511       0.06720768      16.59323813       10       0.00030731       0.00854472      -0.03139162
C        8.52886204       0.76721160      16.59323813       10       0.00246136      -0.00120663      -0.02908606
C        6.10480420       2.16671537      16.59323813       10       0.00226736      -0.00118416      -0.03454028
C        7.31672539       2.86648480      16.59323813       10       0.00628617       0.00321538      -0.01620949
C        4.89292876       4.26609358      16.59323813       10      -0.00018988      -0.00118244      -0.03507587
C        6.10498609       4.96576363      16.59323813       10       0.00128770       0.00146973      -0.01314060
C        3.68087903       6.36536747      16.59323813       10       0.00058111      -0.00160824      -0.03205420
C        4.89300223       7.06497365      16.59323813       10       0.00120195       0.00382688      -0.02937002
C        2.46893185       8.46444535      16.59323813       10       0.00222950       0.00389369      -0.03405845
C        3.68111376       9.16440337      16.59323813       10       0.00260306      -0.00340654      -0.04012499
C        9.74094233       0.06751233      16.59323813       10      -0.00576335       0.00097413      -0.02715509
C       10.95290956       0.76731729      16.59323813       10       0.00458446       0.00318732      -0.03987199
C        8.52878707       2.16674731      16.59323813       10       0.00204562      -0.00485158      -0.03631468
C        9.74083876       2.86640316      16.59323813       10      -0.00147665       0.00622250      -0.03393930
C        7.31704824       4.26606540      16.59323813       10      -0.00055430      -0.00174282      -0.03695205
C        8.52913081       4.96576882      16.59323813       10      -0.00186980       0.00419673      -0.02089859
C        6.10503212       6.36531862      16.59323813       10      -0.00043519      -0.00196688      -0.03632064
C        7.31709437       7.06487292      16.59323813       10      -0.00106146       0.00808584      -0.03118710
C        4.89300468       8.46452349      16.59323813       10      -0.00643009      -0.00220114      -0.02927575
C        6.10498505       9.16419773      16.59323813       10       0.00572546       0.00375705      -0.04069941
