130
Lattice="12.12 0.0 0.0 -6.06 10.496227893867395 0.0 0.0 0.0 40.0" Properties=species:S:1:pos:R:3:tags:I:1:forces:R:3 energy=-1200.4225616648741 stress="0.0028147834635420897 5.027181735173448e-08 1.3202818232192654e-07 5.027181735173448e-08 0.002814711565517872 4.796056027059499e-07 1.3202818232192654e-07 4.796056027059499e-07 0.0027966964363043546" pbc="T T F"
C       -0.00005688      -0.00009047       9.98806363        2       0.00017827       0.00006423       0.00321085
Ti       0.00000894       1.74930038       8.69808122        0      -0.00012949      -0.00034732       0.00532955
Ti       1.51614627       0.87521083      11.31125521        0       0.00042735       0.00045312       0.00216489
O        0.00024707       1.74764702      12.23159545        3      -0.00006293      -0.00050220      -0.06859338
O        1.51514113       0.87473793       7.77559796        1       0.00026309       0.00006718      -0.00012018
C       -1.51543718       2.62440031       9.98807830        2      -0.00000882      -0.00006355       0.00408309
Ti      -1.51484247       4.37348544       8.69723253        0       0.00055994      -0.00018858       0.00410612
Ti      -0.00021298       3.49843802      11.30712955        0       0.00035623       0.00055077       0.00075777
O       -1.51367758       4.37072697      12.23159545        3      -0.00075420      -0.00010240      -0.05079768
O        0.00003808       3.49887061       7.77525587        1       0.00003803       0.00057412      -0.00033161
C       -3.03090183       5.24771766       9.98889742        2      -0.00039947      -0.00023205       0.00509227
Ti      -3.02984001       6.99761173       8.69720980        0       0.00025665       0.00083336       0.00431351
Ti      -1.51629105       6.12187067      11.30920151        0      -0.00078535      -0.00041779       0.00361405
O       -3.03135738       6.99952604      12.23159545        3      -0.00064641      -0.00044378      -0.04982900
O       -1.51498665       6.12280117       7.77540644        1       0.00044070       0.00026929       0.00165915
C       -4.54492460       7.87158211       9.98813376        2      -0.00015674      -0.00012202       0.00402798
Ti      -4.54507452       9.62155367       8.69792024        0      -0.00017670       0.00006774       0.00551268
Ti      -3.03033580       8.74673091      11.30698946        0      -0.00033579      -0.00007783       0.00035321
O       -4.54641248       9.62284843      12.23159545        3      -0.00075907       0.00027667      -0.06532497
O       -3.02987859       8.74684578       7.77519378        1       0.00054042      -0.00015394      -0.00011864
C        3.03059868       0.00000331       9.98840985        2      -0.00010840       0.00060554       0.00425311
Ti       3.03013974       1.74950168       8.69697414        0      -0.00023575      -0.00034113       0.00249975
Ti       4.54563028       0.87543951      11.30644822        0       0.00021526       0.00083769       0.00154937
O        3.02739505       1.74819102      12.23159545        3       0.00061335       0.00045324      -0.05169044
O        4.54507713       0.87454533       7.77505216        1       0.00031367      -0.00062707      -0.00062782
C        1.51531188       2.62447219       9.98825040        2       0.00039945      -0.00001908       0.00425121
Ti       1.51489537       4.37345850       8.69755572        0      -0.00066414      -0.00014357       0.00402113
Ti       3.03071493       3.49939748      11.30623373        0       0.00108166       0.00032896       0.00238085
O        1.51384764       4.37042512      12.23159545        3       0.00051686      -0.00026268      -0.05194489
O        3.02992055       3.49889344       7.77504926        1      -0.00029637       0.00065729      -0.00094864
C       -0.00008504       5.24875744       9.98910067        2       0.00014391      -0.00054784       0.00575501
Ti       0.00009438       6.99752564       8.69840372        0      -0.00013813       0.00029626       0.00673463
Ti       1.51616302       6.12184325      11.30982984        0       0.00066783      -0.00079458       0.00502368
O       -0.00015459       6.99718815      12.23159545        3      -0.00047372       0.00047441      -0.06061234
O        1.51502154       6.12273900       7.77550785        1      -0.00038997       0.00030410       0.00170723
C       -1.51459400       7.87187452       9.98920274        2      -0.00044193       0.00013508       0.00560357
Ti      -1.51502010       9.62140427       8.69762644        0      -0.00042455      -0.00033679       0.00520585
Ti      -0.00016845       8.74839662      11.31078571        0      -0.00030625       0.00079369       0.00432002
O       -1.51798163       9.62246183      12.23159545        3       0.00011979       0.00077157      -0.05125910
O       -0.00003573       8.74689899       7.77555502        1       0.00003046      -0.00030347       0.00221424
C        6.06017422       0.00092582       9.98903323        2      -0.00016551       0.00075659       0.00534382
Ti       6.06003345       1.74937586       8.69651043        0       0.00017645      -0.00077059       0.00243509
Ti       7.57489801       0.87548765      11.30590086        0      -0.00027609       0.00077073       0.00196254
O        6.05970489       1.74841367      12.23159545        3       0.00064080       0.00094135      -0.04618110
O        7.57490741       0.87454225       7.77484432        1      -0.00029931      -0.00076892      -0.00034366
C        4.54551393       2.62445775       9.98827369        2       0.00013061       0.00046863       0.00414738
Ti       4.54512659       4.37350085       8.69651137        0      -0.00036377       0.00025449       0.00175693
Ti       6.05983406       3.49851995      11.30413080        0      -0.00009693       0.00037436       0.00259941
O        4.54387980       4.37362899      12.23159545        3       0.00132008      -0.00030209      -0.04886107
O        6.05998833       3.49869493       7.77421888        1      -0.00013010      -0.00005164      -0.00118012
C        3.03095961       5.24789499       9.98896142        2       0.00022313      -0.00024710       0.00540791
Ti       3.02981027       6.99761935       8.69748016        0      -0.00022792       0.00083167       0.00422577
Ti       4.54529099       6.12260188      11.30548958        0       0.00056745      -0.00069095       0.00210817
O        3.03142242       6.99907909      12.23159545        3       0.00054678      -0.00028782      -0.05004774
O        4.54478989       6.12281407       7.77478036        1      -0.00084141       0.00019752      -0.00080072
C        1.51466092       7.87201862       9.98919425        2       0.00031888      -0.00008621       0.00587265
Ti       1.51502072       9.62131933       8.69757473        0       0.00040688      -0.00027440       0.00523846
Ti       3.03043769       8.74703784      11.30716771        0      -0.00051133      -0.00066038       0.00046810
O        1.51731213       9.62238999      12.23159545        3      -0.00014781       0.00071934      -0.05053272
O        3.02994083       8.74683916       7.77515695        1      -0.00055757      -0.00022227       0.00011125
C        9.08935592       0.00008989       9.98837270        2       0.00026627       0.00044583       0.00449463
Ti       9.08981635       1.74949414       8.69655045        0       0.00029704      -0.00019590       0.00288964
Ti      10.60391060       0.87521058      11.31051661        0       0.00005236       0.00025031       0.00143000
O        9.09308310       1.74808429      12.23159545        3      -0.00023601       0.00085359      -0.04820467
O       10.60487691       0.87471171       7.77549274        1      -0.00025594       0.00005409      -0.00026965
C        7.57457860       2.62458623       9.98826569        2      -0.00019992       0.00032272       0.00384431
Ti       7.57483599       4.37343261       8.69640229        0       0.00042387       0.00011897       0.00201610
Ti       9.08952506       3.49929584      11.30554497        0      -0.00038657       0.00080992       0.00161210
O        7.57577921       4.37371364      12.23159545        3      -0.00040584      -0.00020325      -0.05194132
O        9.09008199       3.49890313       7.77480306        1       0.00043694       0.00063489      -0.00090453
C        6.06016627       5.24750961       9.98815341        2      -0.00009598      -0.00010089       0.00378419
Ti       6.05997493       6.99718121       8.69656962        0       0.00015819       0.00044911       0.00217906
Ti       7.57518435       6.12239582      11.30539309        0      -0.00026601      -0.00033661       0.00106840
O        6.06020468       7.00098395      12.23159545        3       0.00032300      -0.00067351      -0.04564879
O        7.57521261       6.12282029       7.77474473        1       0.00078337       0.00018192      -0.00102434
C        4.54486974       7.87157463       9.98827205        2       0.00037177      -0.00026409       0.00437300
Ti       4.54506316       9.62153851       8.69782586        0       0.00009843       0.00016060       0.00527390
Ti       6.06002361       8.74564515      11.31016766        0       0.00001501      -0.00009869       0.00090109
O        4.54677096       9.62275395      12.23159545        3       0.00028471       0.00023683      -0.06295554
O        6.05998476       8.74673421       7.77546955        1       0.00000011      -0.00021740      -0.00038285
C        0.04473888       0.06738897      15.88422703       10       0.00414084       0.00060874      -0.02805846
C        1.25667295       0.76714841      15.88422703       10       0.00325139       0.00299258      -0.03091502
C       -1.16716511       2.16680216      15.88422703       10       0.00213296      -0.00015265      -0.00199523
C        0.04495326       2.86557707      15.88422703       10      -0.00111745       0.00155268      -0.01425060
C       -2.37934264       4.26556292      15.88422703       10       0.00220069      -0.00180011       0.01603703
C       -1.16747696       4.96508693      15.88422703       10       0.00111675       0.00108695       0.01563548
C       -3.59164625       6.36527963      15.88422703       10       0.00352738      -0.00136279       0.01755707
C       -2.37976219       7.06494397      15.88422703       10       0.00127301      -0.00133064       0.01793501
C       -4.80293070       8.46446645      15.88422703       10       0.00008082      -0.00225516       0.00220694
C       -3.59182656       9.16460437      15.88422703       10       0.00056680      -0.00150187      -0.00925216
C        2.46892563       0.06742857      15.88422703       10       0.00339376       0.00313679      -0.00286672
C        3.68072262       0.76759449      15.88422703       10       0.00260046       0.00130544       0.01385619
C        1.25708672       2.16670976      15.88422703       10      -0.00018936       0.00252705      -0.00532164
C        2.46937009       2.86624224      15.88422703       10       0.00000233       0.00005014       0.01428334
C        0.04496293       4.26627201      15.88422703       10       0.00027711       0.00109158       0.01757724
C        1.25734530       4.96517910      15.88422703       10       0.00026699      -0.00028061       0.01261904
C       -1.16756903       6.36492549      15.88422703       10       0.00087933       0.00207141       0.01989911
C        0.04481319       7.06481235      15.88422703       10       0.00009873      -0.00125138       0.02254910
C       -2.37875726       8.46433933      15.88422703       10       0.00027641      -0.00067013       0.01768730
C       -1.16726180       9.16480593      15.88422703       10      -0.00008928      -0.00266288       0.01279097
C        4.89278764       0.06783452      15.88422703       10       0.00094638       0.00238094       0.01743419
C        6.10489618       0.76730156      15.88422703       10       0.00083286       0.00128480       0.03311024
C        3.68101114       2.16672998      15.88422703       10      -0.00084786      -0.00014633       0.01271600
C        4.89330473       2.86664927      15.88422703       10       0.00005402      -0.00153057       0.04430313
C        2.46926864       4.26567268      15.88422703       10       0.00001770      -0.00036233       0.01617544
C        3.68109302       4.96577044      15.88422703       10      -0.00009526      -0.00027959       0.03674894
C        1.25731653       6.36513048      15.88422703       10       0.00018825       0.00104647       0.02078648
C        2.46965708       7.06495935      15.88422703       10       0.00102566      -0.00021335       0.01865541
C        0.04511235       8.46472116      15.88422703       10      -0.00098729      -0.00129558       0.02212833
C        1.25736861       9.16485325      15.88422703       10      -0.00111490      -0.00240436       0.01658306
C        7.31706441       0.06791854      15.88422703       10      -0.00027103       0.00258077       0.01874903
C        8.52902400       0.76759313      15.88422703       10      -0.00055691       0.00052397       0.02003889
C        6.10488788       2.16699762      15.88422703       10       0.00023778       0.00093923       0.02348000
C        7.31665716       2.86660190      15.88422703       10      -0.00067415      -0.00229952       0.04392232
C        4.89317326       4.26580801      15.88422703       10      -0.00024964      -0.00034392       0.02502168
C        6.10494004       4.96557709      15.88422703       10      -0.00049172      -0.00143622       0.04230370
C        3.68153664       6.36523370      15.88422703       10       0.00007907      -0.00055484       0.01912765
C        4.89327097       7.06499515      15.88422703       10       0.00010932      -0.00270143       0.02565198
C        2.46901183       8.46445140      15.88422703       10      -0.00266427      -0.00149545       0.01661933
C        3.68207115       9.16481631      15.88422703       10      -0.00348947      -0.00333148      -0.00378637
C        9.74085366       0.06757375      15.88422703       10      -0.00079248       0.00124434       0.00349093
C       10.95300249       0.76737238      15.88422703       10      -0.00019972       0.00194556      -0.02814965
C        8.52898397       2.16676722      15.88422703       10      -0.00121278       0.00109656       0.01679125
C        9.74062402       2.86635348      15.88422703       10      -0.00370162       0.00135739       0.02175641
C        7.31683723       4.26591652      15.88422703       10      -0.00119654      -0.00132349       0.02615762
C        8.52897928       4.96573835      15.88422703       10      -0.00244270       0.00180435       0.04132388
C        6.10500164       6.36536390      15.88422703       10       0.00083679      -0.00173154       0.02014877
C        7.31679469       7.06477433      15.88422703       10      -0.00229464      -0.00008765       0.02686980
C        4.89321330       8.46454884      15.88422703       10      -0.00331992      -0.00316692       0.00543283
C        6.10527635       9.16418168      15.88422703       10      -0.00426140      -0.00082239      -0.02537646
