130
Lattice="12.12 0.0 0.0 -6.06 10.496227893867395 0.0 0.0 0.0 40.0" Properties=species:S:1:pos:R:3:tags:I:1:forces:R:3 energy=-1201.2617872699273 stress="0.002876397421719301 -1.499057995952554e-08 2.4961688948184654e-08 -1.499057995952554e-08 0.00287633518952883 5.26703819061152e-07 2.4961688948184654e-08 5.26703819061152e-07 0.0022044096256498215" pbc="T T F"
C        0.00000821      -0.00001352      10.00288923        2      -0.00002518       0.00003055       0.00290580
Ti       0.00000084       1.74941489       8.71188317        0       0.00002910       0.00001654       0.00341756
Ti       1.51498174       0.87461757      11.29276787        0       0.00013604       0.00019949       0.00177589
O       -0.00006321       1.74983870      12.23008024        3      -0.00006635       0.00006903       0.08866522
O        1.51493282       0.87466188       7.77227151        1      -0.00002651      -0.00000317       0.00364396
C       -1.51496346       2.62406484      10.00254517        2      -0.00001674       0.00004100       0.00263859
Ti      -1.51501965       4.37346934       8.71162936        0       0.00004333       0.00000877       0.00286070
Ti      -0.00000676       3.49901728      11.29235873        0       0.00007387       0.00028633       0.00161397
O       -1.51528643       4.37386086      12.23008024        3       0.00000123       0.00010500       0.10256419
O        0.00001943       3.49860053       7.77214722        1       0.00002267      -0.00011120       0.00333977
C       -3.02998610       5.24814808      10.00222446        2       0.00004244       0.00008714       0.00243375
Ti      -3.02998763       6.99745180       8.71160599        0       0.00001869       0.00003174       0.00286318
Ti      -1.51492872       6.12287378      11.29243657        0       0.00015992       0.00007612       0.00141713
O       -3.02987712       6.99709614      12.23008024        3       0.00010711       0.00008618       0.10091503
O       -1.51504458       6.12275804       7.77204402        1      -0.00002438       0.00000665       0.00306877
C       -4.54498579       7.87218966      10.00247972        2       0.00006745       0.00002955       0.00265841
Ti      -4.54495670       9.62151125       8.71184874        0       0.00000046       0.00004802       0.00342404
Ti      -3.02968894       8.74670692      11.29231505        0       0.00017906       0.00002121       0.00151436
O       -4.54435057       9.62096379      12.23008024        3      -0.00004956       0.00003707       0.09800248
O       -3.03010806       8.74695313       7.77212161        1      -0.00006700       0.00012272       0.00329819
C        3.03001767       0.00000935      10.00256296        2       0.00000150       0.00000696       0.00269049
Ti       3.02999921       1.74937271       8.71179043        0      -0.00000811       0.00005446       0.00315963
Ti       4.54506730       0.87471256      11.29241667        0       0.00004644       0.00019428       0.00166564
O        3.03030946       1.74975630      12.23008024        3      -0.00007443       0.00002728       0.10625104
O        4.54492260       0.87475021       7.77213288        1      -0.00004272       0.00012169       0.00334434
C        1.51497866       2.62405529      10.00260378        2      -0.00003461       0.00004025       0.00258579
Ti       1.51502444       4.37347651       8.71165129        0       0.00003388       0.00001715       0.00282696
Ti       3.02998212       3.49883453      11.29244848        0      -0.00002030       0.00023739       0.00170322
O        1.51511040       4.37377678      12.23008024        3      -0.00007922       0.00018879       0.10467282
O        3.02999488       3.49865386       7.77215019        1       0.00003334      -0.00004830       0.00335456
C        0.00001440       5.24812028      10.00226260        2      -0.00003158       0.00012240       0.00227944
Ti       0.00000252       6.99749078       8.71160534        0       0.00004014       0.00006325       0.00274879
Ti       1.51496049       6.12287339      11.29247777        0       0.00001322       0.00008015       0.00150407
O        0.00001468       6.99754875      12.23008024        3      -0.00003254       0.00013619       0.09044873
O        1.51505260       6.12274514       7.77206069        1       0.00006023      -0.00000771       0.00311768
C       -1.51495879       7.87219505      10.00222127        2       0.00000231       0.00006395       0.00234181
Ti      -1.51494327       9.62154932       8.71161624        0       0.00000618       0.00009065       0.00292071
Ti       0.00002886       8.74685213      11.29250572        0       0.00004722       0.00008676       0.00146037
O       -1.51472981       9.62164379      12.23008024        3       0.00003530       0.00002716       0.10412240
O       -0.00000408       8.74692270       7.77204871        1       0.00000586       0.00013764       0.00311664
C        6.06001353       0.00007362      10.00227412        2      -0.00000742       0.00006359       0.00243708
Ti       6.06000299       1.74941229       8.71172083        0      -0.00001427       0.00008876       0.00300255
Ti       7.57500602       0.87478537      11.29244105        0      -0.00012666       0.00014412       0.00161018
O        6.06004632       1.74933307      12.23008024        3       0.00000496       0.00012029       0.10618715
O        7.57506423       0.87475130       7.77212347        1       0.00003480       0.00012807       0.00329338
C        4.54501168       2.62409306      10.00246467        2      -0.00002269       0.00004676       0.00245266
Ti       4.54502086       4.37342360       8.71174158        0      -0.00002307       0.00001295       0.00293034
Ti       6.06003683       3.49883608      11.29303075        0      -0.00014136       0.00018311       0.00173096
O        4.54483410       4.37362689      12.23008024        3      -0.00004456       0.00017926       0.10288099
O        6.05999848       3.49875497       7.77216750        1      -0.00000195       0.00005467       0.00332306
C        3.03002319       5.24813261      10.00227736        2      -0.00005210       0.00011617       0.00231208
Ti       3.02999350       6.99745101       8.71162567        0       0.00001561       0.00000920       0.00282181
Ti       4.54502572       6.12282642      11.29249765        0      -0.00015546       0.00001407       0.00162300
O        3.03002201       6.99714502      12.23008024        3      -0.00007761       0.00017735       0.10374719
O        4.54507016       6.12282436       7.77213033        1       0.00007020       0.00003508       0.00327396
C        1.51497299       7.87218644      10.00222967        2      -0.00002446       0.00010214       0.00227163
Ti       1.51495695       9.62155969       8.71161539        0       0.00002377       0.00007787       0.00290608
Ti       3.02967328       8.74671215      11.29232084        0      -0.00016448      -0.00003463       0.00156761
O        1.51470609       9.62188905      12.23008024        3       0.00000291       0.00003651       0.10413202
O        3.03012027       8.74693525       7.77212977        1       0.00008614       0.00011630       0.00329284
C        9.08998708       0.00002425      10.00251136        2       0.00001509       0.00007574       0.00263344
Ti       9.08999950       1.74938053       8.71175316        0       0.00003048       0.00004532       0.00314167
Ti      10.60500546       0.87463128      11.29267883        0      -0.00012847       0.00011965       0.00169111
O        9.08993828       1.74988139      12.23008024        3      -0.00004050       0.00005882       0.10415629
O       10.60508853       0.87465946       7.77225827        1       0.00005422       0.00001758       0.00357041
C        7.57498982       2.62411176      10.00243468        2       0.00004536       0.00008145       0.00245439
Ti       7.57499202       4.37342911       8.71173355        0      -0.00001393       0.00000421       0.00297208
Ti       9.09004512       3.49886192      11.29249608        0      -0.00003072       0.00015866       0.00156633
O        7.57514829       4.37357462      12.23008024        3       0.00005551       0.00013985       0.09695592
O        9.09001162       3.49866523       7.77213176        1      -0.00000262      -0.00001534       0.00325608
C        6.06000922       5.24810735      10.00244122        2       0.00005193       0.00014747       0.00243311
Ti       6.06000378       6.99748037       8.71174394        0      -0.00001175       0.00001975       0.00307935
Ti       7.57507494       6.12282481      11.29252597        0       0.00003528       0.00001674       0.00153014
O        6.06020824       6.99732122      12.23008024        3       0.00002803       0.00006901       0.10323958
O        7.57493207       6.12283874       7.77211957        1      -0.00004016       0.00005926       0.00323195
C        4.54499344       7.87217928      10.00249286        2       0.00000692       0.00007270       0.00253980
Ti       4.54495263       9.62151275       8.71183683        0       0.00001439       0.00002638       0.00335012
Ti       6.05998330       8.74689705      11.29263231        0      -0.00004130      -0.00010287       0.00166480
O        4.54415074       9.62100411      12.23008024        3       0.00006019       0.00006851       0.10637879
O        6.06000642       8.74695839       7.77223878        1       0.00002487       0.00009662       0.00354731
C        0.04511050       0.06753535      17.01955392       10      -0.00082202       0.00004913      -0.03756216
C        1.25717902       0.76730222      17.01955392       10      -0.00533808      -0.00192282      -0.03146824
C       -1.16717889       2.16679284      17.01955392       10       0.00119401       0.00213871      -0.03799366
C        0.04484265       2.86662865      17.01955392       10       0.00101091      -0.00172957      -0.04075604
C       -2.37908186       4.26596493      17.01955392       10      -0.00128488       0.00068026      -0.03332999
C       -1.16703429       4.96579593      17.01955392       10       0.00051957      -0.00067787      -0.04098182
C       -3.59097263       6.36519108      17.01955392       10      -0.00280979       0.00217663      -0.03622620
C       -2.37891279       7.06495790      17.01955392       10      -0.00043812      -0.00216714      -0.04212193
C       -4.80312476       8.46440155      17.01955392       10       0.00243936       0.00092275      -0.03723012
C       -3.59103003       9.16413129      17.01955392       10      -0.00015089      -0.00041631      -0.03992149
C        2.46910100       0.06750193      17.01955392       10       0.00027929      -0.00040555      -0.03345489
C        3.68119896       0.76724660      17.01955392       10      -0.00418216      -0.00040432      -0.02721583
C        1.25689445       2.16677915      17.01955392       10       0.00337972       0.00136597      -0.03502348
C        2.46899317       2.86653904      17.01955392       10      -0.00166172       0.00013156      -0.02670155
C        0.04502072       4.26601408      17.01955392       10      -0.00113998      -0.00013195      -0.02653260
C        1.25711491       4.96577787      17.01955392       10      -0.00194204       0.00210057      -0.04193448
C       -1.16687053       6.36523114      17.01955392       10      -0.00206720       0.00136817      -0.03994408
C        0.04514969       7.06497149      17.01955392       10      -0.00038313       0.00053895      -0.03971962
C       -2.37910233       8.46446820      17.01955392       10       0.00184241       0.00093306      -0.02760687
C       -1.16700340       9.16418543      17.01955392       10       0.00123692       0.00232603      -0.04319267
C        4.89307900       0.06754177      17.01955392       10      -0.00152844      -0.00130586      -0.03182330
C        6.10500966       0.76732640      17.01955392       10       0.00033524      -0.00093615      -0.04181480
C        3.68094026       2.16675033      17.01955392       10       0.00264009      -0.00000467      -0.03950775
C        4.89286644       2.86655056      17.01955392       10       0.00252009       0.00029739      -0.03121491
C        2.46904316       4.26596848      17.01955392       10       0.00096050      -0.00267238      -0.03074411
C        3.68097314       4.96573548      17.01955392       10      -0.00095705       0.00245857      -0.04250846
C        1.25718191       6.36525454      17.01955392       10      -0.00250631      -0.00051514      -0.03767443
C        2.46915186       7.06501904      17.01955392       10      -0.00269398      -0.00022703      -0.04384491
C        0.04499673       8.46446239      17.01955392       10      -0.00028927       0.00072441      -0.03809682
C        1.25690126       9.16434414      17.01955392       10       0.00153628       0.00107741      -0.04558082
C        7.31708425       0.06769064      17.01955392       10      -0.00123995      -0.00258249      -0.03570004
C        8.52899685       0.76735051      17.01955392       10      -0.00189337      -0.00116441      -0.02702142
C        6.10482614       2.16679212      17.01955392       10       0.00037504      -0.00073719      -0.04142574
C        7.31674617       2.86656966      17.01955392       10       0.00209430      -0.00160017      -0.03254902
C        4.89284998       4.26602289      17.01955392       10       0.00192593      -0.00231294      -0.04473702
C        6.10492185       4.96559227      17.01955392       10       0.00115678      -0.00011572      -0.03416537
C        3.68116012       6.36526552      17.01955392       10       0.00164986      -0.00032678      -0.03724477
C        4.89312762       7.06488605      17.01955392       10      -0.00339700      -0.00160192      -0.02739493
C        2.46891213       8.46456449      17.01955392       10       0.00424395       0.00015683      -0.02851524
C        3.68086080       9.16419291      17.01955392       10      -0.00029860       0.00020755      -0.03935581
C        9.74105638       0.06755875      17.01955392       10       0.00014294       0.00017841      -0.03312445
C       10.95303561       0.76731178      17.01955392       10      -0.00248132      -0.00115696      -0.02958752
C        8.52876502       2.16681342      17.01955392       10       0.00046216       0.00192931      -0.03825702
C        9.74072753       2.86659441      17.01955392       10       0.00277912      -0.00239211      -0.02579723
C        7.31695834       4.26599203      17.01955392       10      -0.00052099       0.00046547      -0.04522965
C        8.52893547       4.96572398      17.01955392       10       0.00125916      -0.00088004      -0.04358784
C        6.10508679       6.36506405      17.01955392       10      -0.00103294       0.00151350      -0.03597624
C        7.31706388       7.06486518      17.01955392       10      -0.00118026      -0.00238000      -0.02666771
C        4.89289753       8.46442096      17.01955392       10       0.00533323       0.00168081      -0.03392043
C        6.10489722       9.16416834      17.01955392       10       0.00081975      -0.00031425      -0.02853991
