130
Lattice="12.12 0.0 0.0 -6.06 10.496227893867395 0.0 0.0 0.0 40.0" Properties=species:S:1:pos:R:3:tags:I:1:forces:R:3 energy=-1202.3087291372042 stress="0.0029022351497884524 -5.309918827097174e-08 -1.6208987950524684e-07 -5.309918827097174e-08 0.0029025331403651003 -4.285329652565195e-07 -1.6208987950524684e-07 -4.285329652565195e-07 0.0025281150214749256" pbc="T T F"
C        0.00001518      -0.00002526      10.00450409        2       0.00001398       0.00009981      -0.00477629
Ti       0.00000809       1.74931014       8.71616659        0      -0.00011446      -0.00051968      -0.00102326
Ti       1.51440527       0.87450519      11.30212002        0      -0.00135627      -0.00148946       0.00664550
O        0.00005386       1.74915760      12.23008024        3       0.00032674       0.00104737       0.02479082
O        1.51534157       0.87479661       7.77872515        1      -0.00005434      -0.00009510       0.00191272
C       -1.51493256       2.62401179      10.00533992        2      -0.00005162       0.00052056      -0.00411018
Ti      -1.51496555       4.37332386       8.71752133        0      -0.00006323      -0.00019586      -0.00133658
Ti      -0.00003865       3.49779567      11.30341142        0      -0.00110463      -0.00207728       0.00554796
O       -1.51458206       4.37286195      12.23008024        3       0.00038789       0.00016177       0.03828703
O       -0.00001182       3.49914197       7.77903576        1      -0.00003959      -0.00013623       0.00134027
C       -3.02995171       5.24808706      10.00614449        2       0.00000724      -0.00027022      -0.00387697
Ti      -3.03001069       6.99751400       8.71765475        0      -0.00021582       0.00018948      -0.00167695
Ti      -1.51504272       6.12257078      11.30331865        0      -0.00116357       0.00001218       0.00551441
O       -3.03011364       6.99780518      12.23008024        3       0.00046014      -0.00066973       0.03701744
O       -1.51501643       6.12281488       7.77944163        1      -0.00006934      -0.00004790       0.00136515
C       -4.54495329       7.87223460      10.00559049        2       0.00007188      -0.00054249      -0.00450432
Ti      -4.54503608       9.62155298       8.71642659        0      -0.00025212      -0.00001999      -0.00142622
Ti      -3.03079722       8.74716993      11.30363378        0      -0.00138993       0.00035028       0.00618586
O       -4.54527883       9.62188359      12.23008024        3       0.00047308       0.00011180       0.03006276
O       -3.02965666       8.74660152       7.77917111        1      -0.00004997      -0.00003676       0.00175873
C        3.02995476      -0.00013255      10.00543390        2       0.00061710       0.00035575      -0.00418280
Ti       3.03000241       1.74934979       8.71738389        0      -0.00049433      -0.00056142      -0.00117416
Ti       4.54443032       0.87468077      11.30413516        0      -0.00037876      -0.00056226       0.00520563
O        3.02827961       1.74833960      12.23008024        3       0.00021035       0.00073979       0.04015455
O        4.54534642       0.87480110       7.77970028        1      -0.00009934      -0.00012161       0.00093674
C        1.51490086       2.62399961      10.00525802        2       0.00046863       0.00075638      -0.00363676
Ti       1.51497006       4.37327512       8.71746349        0      -0.00038476      -0.00028219      -0.00093308
Ti       3.02969934       3.49832773      11.30411648        0      -0.00024489      -0.00129450       0.00434583
O        1.51429572       4.37263375      12.23008024        3       0.00043846       0.00018835       0.03933792
O        3.03034163       3.49891411       7.77965194        1      -0.00012944      -0.00006820       0.00069982
C       -0.00005213       5.24808299      10.00578183        2       0.00045605       0.00008117      -0.00319838
Ti      -0.00001353       6.99743397       8.71730454        0      -0.00026935      -0.00000459      -0.00093105
Ti       1.51501604       6.12243946      11.30300938        0      -0.00021597       0.00059377       0.00472839
O       -0.00020404       6.99713183      12.23008024        3       0.00048508      -0.00042884       0.03121811
O        1.51506541       6.12284371       7.77948167        1      -0.00009166      -0.00007104       0.00100638
C       -1.51502226       7.87208897      10.00593711        2       0.00039743      -0.00025992      -0.00384284
Ti      -1.51511608       9.62155316       8.71759200        0      -0.00037700      -0.00016715      -0.00145496
Ti      -0.00009196       8.74682552      11.30284430        0      -0.00030407       0.00079874       0.00540896
O       -1.51572825       9.62115966      12.23008024        3       0.00047916       0.00012423       0.03883712
O        0.00004856       8.74686160       7.77951290        1      -0.00007536      -0.00011363       0.00131252
C        6.05996778      -0.00012896      10.00632855        2      -0.00006637       0.00018697      -0.00364674
Ti       6.05998350       1.74920924       8.71806917        0       0.00010843      -0.00031683      -0.00103161
Ti       7.57548208       0.87471611      11.30423232        0       0.00126768       0.00009239       0.00503873
O        6.06001658       1.74873673      12.23008024        3      -0.00033107       0.00013430       0.03096792
O        7.57469649       0.87477232       7.77978683        1       0.00002524      -0.00009094       0.00096573
C        4.54490608       2.62394627      10.00652573        2       0.00004435       0.00036572      -0.00299410
Ti       4.54487241       4.37343990       8.71797993        0       0.00004198       0.00005965      -0.00080886
Ti       6.05999977       3.49881848      11.30306326        0       0.00107278      -0.00036729       0.00452098
O        4.54429199       4.37377260      12.23008024        3      -0.00038529      -0.00029595       0.03128243
O        6.05997994       3.49869788       7.78012891        1      -0.00002981       0.00000469       0.00063058
C        3.02989794       5.24806810      10.00621350        2      -0.00006368      -0.00031645      -0.00280413
Ti       3.03001110       6.99750236       8.71768969        0       0.00018117       0.00035791      -0.00114639
Ti       4.54521707       6.12303329      11.30406554        0       0.00121123       0.00136593       0.00475825
O        3.02988211       6.99773276      12.23008024        3      -0.00015100      -0.00080981       0.03563182
O        4.54499514       6.12249689       7.77982462        1      -0.00001325      -0.00000018       0.00081433
C        1.51500647       7.87212452      10.00602348        2      -0.00007582      -0.00055651      -0.00327761
Ti       1.51507356       9.62153785       8.71769084        0       0.00019811       0.00003212      -0.00132515
Ti       3.03079986       8.74718246      11.30362454        0       0.00129208       0.00158618       0.00570975
O        1.51537332       9.62122261      12.23008024        3      -0.00039382      -0.00044158       0.03710571
O        3.02966310       8.74661547       7.77932310        1       0.00005537      -0.00000833       0.00131779
C        9.09006794      -0.00011771      10.00565349        2      -0.00063140      -0.00014652      -0.00419194
Ti       9.09000512       1.74933849       8.71751385        0       0.00043167      -0.00025392      -0.00124679
Ti      10.60571358       0.87462191      11.30241559        0       0.00035015      -0.00080676       0.00662836
O        9.09151171       1.74853918      12.23008024        3      -0.00042422       0.00024081       0.03484498
O       10.60460256       0.87476551       7.77881812        1       0.00005041      -0.00006696       0.00186680
C        7.57506661       2.62396536      10.00650718        2      -0.00048401       0.00013879      -0.00350488
Ti       7.57508561       4.37343628       8.71785921        0       0.00028482       0.00014299      -0.00099125
Ti       9.09016849       3.49847394      11.30389086        0       0.00012218      -0.00109596       0.00545475
O        7.57579283       4.37379230      12.23008024        3      -0.00018219      -0.00008886       0.02898076
O        9.08965929       3.49885512       7.77964502        1       0.00005309      -0.00003317       0.00111938
C        6.05999131       5.24816588      10.00649250        2      -0.00039835      -0.00062517      -0.00339067
Ti       6.05999469       6.99749432       8.71763776        0       0.00018437       0.00051655      -0.00154434
Ti       7.57481381       6.12295596      11.30379478        0      -0.00011420       0.00087510       0.00582397
O        6.06007761       6.99890632      12.23008024        3      -0.00062797      -0.00080573       0.03230478
O        7.57494481       6.12247712       7.77973067        1       0.00003979       0.00000861       0.00122249
C        4.54497361       7.87227015      10.00574544        2      -0.00056026      -0.00079081      -0.00410734
Ti       4.54506020       9.62156869       8.71661323        0       0.00037870       0.00012684      -0.00134020
Ti       6.06016484       8.74743005      11.30273177        0       0.00012264       0.00125022       0.00689736
O        4.54578694       9.62210272      12.23008024        3      -0.00049276      -0.00016983       0.03611660
O        6.05993892       8.74641226       7.77893112        1       0.00004383      -0.00000836       0.00192634
C        0.04504531       0.06756452      16.30902761       10      -0.00466845      -0.00301655      -0.04195513
C        1.25708244       0.76735652      16.30902761       10       0.00335512       0.00130220      -0.00902676
C       -1.16710170       2.16717102      16.30902761       10       0.00062528      -0.00639522      -0.02901066
C        0.04493542       2.86687500      16.30902761       10       0.00054444       0.00164721      -0.01506227
C       -2.37892933       4.26632805      16.30902761       10       0.00039514      -0.00344278      -0.00468978
C       -1.16695685       4.96603755      16.30902761       10       0.00126665       0.00153779      -0.01211345
C       -3.59063352       6.36530999      16.30902761       10      -0.00040316      -0.00446848      -0.00588614
C       -2.37860614       7.06491868      16.30902761       10      -0.00139329       0.00358132      -0.01211488
C       -4.80275830       8.46437591      16.30902761       10      -0.00264788      -0.00197178      -0.02527984
C       -3.59077189       9.16413818      16.30902761       10       0.00515844      -0.00116398      -0.01383784
C        2.46931031       0.06749575      16.30902761       10      -0.00227698       0.00248020      -0.02529620
C        3.68126668       0.76745037      16.30902761       10      -0.00291557      -0.00354673      -0.00808804
C        1.25696957       2.16708529      16.30902761       10       0.00008840      -0.00384021      -0.02932842
C        2.46901272       2.86673247      16.30902761       10      -0.00124419       0.00141508      -0.00941797
C        0.04501352       4.26649766      16.30902761       10      -0.00139101      -0.00161756      -0.00553080
C        1.25706723       4.96597258      16.30902761       10      -0.00041642       0.00166464      -0.01435066
C       -1.16648432       6.36549417      16.30902761       10      -0.00656625      -0.00246826       0.00069772
C        0.04526985       7.06511724      16.30902761       10      -0.00205454       0.00101387      -0.01889891
C       -2.37861203       8.46432170      16.30902761       10      -0.00158206       0.00140415      -0.00288203
C       -1.16685590       9.16438324      16.30902761       10       0.00051417      -0.00692914      -0.01630184
C        4.89318290       0.06751025      16.30902761       10      -0.00106960       0.00718156      -0.00164284
C        6.10504250       0.76727085      16.30902761       10      -0.00300755      -0.00398302      -0.00699491
C        3.68097894       2.16695469      16.30902761       10       0.00270768      -0.00041935      -0.00863077
C        4.89284478       2.86673077      16.30902761       10       0.00086040      -0.00185019      -0.01116300
C        2.46894655       4.26621454      16.30902761       10       0.00261437       0.00091625      -0.00185133
C        3.68078573       4.96602459      16.30902761       10      -0.00262617      -0.00070945      -0.00963915
C        1.25706480       6.36540227      16.30902761       10      -0.00085863       0.00197449       0.00536803
C        2.46900743       7.06503069      16.30902761       10      -0.00257593       0.00064860      -0.01513031
C        0.04500397       8.46446925      16.30902761       10       0.00310614       0.00409119       0.00651361
C        1.25680467       9.16446117      16.30902761       10       0.00126295      -0.00701293      -0.01702768
C        7.31693119       0.06756225      16.30902761       10      -0.00047750       0.00706481      -0.00278170
C        8.52883957       0.76747186      16.30902761       10       0.00187460      -0.00121924      -0.00704936
C        6.10477340       2.16673739      16.30902761       10       0.00212659      -0.00093975      -0.01446651
C        7.31672595       2.86659233      16.30902761       10       0.00662721       0.00268438      -0.01157030
C        4.89275260       4.26628623      16.30902761       10       0.00048750      -0.00150655      -0.01506594
C        6.10493647       4.96586777      16.30902761       10       0.00146912       0.00199437      -0.01148038
C        3.68091468       6.36536914      16.30902761       10       0.00119146      -0.00138741      -0.00442520
C        4.89299900       7.06494092      16.30902761       10       0.00000182       0.00416389      -0.00920058
C        2.46857032       8.46440898      16.30902761       10       0.00275977       0.00360549      -0.00108281
C        3.68067944       9.16423551      16.30902761       10       0.00243294      -0.00241044      -0.01313671
C        9.74083454       0.06757523      16.30902761       10      -0.00530633       0.00131280      -0.02059219
C       10.95292967       0.76742238      16.30902761       10       0.00270015       0.00198983      -0.00755756
C        8.52878015       2.16700785      16.30902761       10       0.00142956      -0.00321804      -0.00886732
C        9.74086774       2.86676786      16.30902761       10       0.00060547       0.00466733      -0.01137443
C        7.31709164       4.26619731      16.30902761       10      -0.00105661      -0.00130869      -0.01478647
C        8.52918776       4.96588396      16.30902761       10      -0.00019688       0.00379105      -0.01338579
C        6.10509926       6.36531149      16.30902761       10      -0.00043137      -0.00155335      -0.01050024
C        7.31727797       7.06486270      16.30902761       10      -0.00067296       0.00674463      -0.01123575
C        4.89281410       8.46441988      16.30902761       10      -0.00338565      -0.00125459      -0.02143291
C        6.10497355       9.16413941      16.30902761       10       0.00458160       0.00327135      -0.00755002
