130
Lattice="12.12 0.0 0.0 -6.06 10.496227893867395 0.0 0.0 0.0 40.0" Properties=species:S:1:pos:R:3:tags:I:1:forces:R:3 energy=-1198.504871181804 stress="0.002746846704526378 1.4969560381540882e-07 -1.6963545541788939e-06 1.4969560381540882e-07 0.002746644722523811 -2.571410162991738e-06 -1.6963545541788939e-06 -2.571410162991738e-06 0.003154208797239113" pbc="T T F"
C       -0.00026617      -0.00033583       9.97898454        2      -0.00045438      -0.00041531      -0.00736834
Ti       0.00002398       1.74946311       8.70165376        0      -0.00008437       0.00010140       0.00208224
Ti       1.51207122       0.87324543      11.27973993        0      -0.00107279      -0.00109089      -0.00279702
O       -0.00131271       1.75000297      12.23159545        3      -0.00048830      -0.00076115      -0.16867671
O        1.51432437       0.87429448       7.77457063        1      -0.00013730      -0.00041514      -0.00198515
C       -1.51469153       2.62320924       9.97626728        2      -0.00057225      -0.00095370      -0.00743936
Ti      -1.51499727       4.37293084       8.70243512        0      -0.00009903      -0.00021442       0.00279145
Ti      -0.00064967       3.49527343      11.28388959        0      -0.00083243      -0.00136488      -0.00349263
O       -1.51994546       4.37328480      12.23159545        3      -0.00116013      -0.00106582      -0.17741646
O        0.00018769       3.49863076       7.77594207        1      -0.00018469       0.00008924      -0.00115667
C       -3.03049973       5.24756306       9.97596735        2      -0.00069282      -0.00080070      -0.00755800
Ti      -3.03030014       6.99763151       8.70227455        0      -0.00017892      -0.00061307       0.00266870
Ti      -1.51848022       6.12021675      11.28980006        0      -0.00130428      -0.00070342      -0.00248103
O       -3.03315660       6.99317595      12.23159545        3      -0.00114251      -0.00121925      -0.18367823
O       -1.51474684       6.12284857       7.77798109        1       0.00064530       0.00027844      -0.00045093
C       -4.54565790       7.87275071       9.97587967        2      -0.00071698      -0.00048812      -0.00743178
Ti      -4.54483220       9.62152200       8.70177866        0       0.00001446      -0.00028131       0.00227579
Ti      -3.03377983       8.74754060      11.28505143        0      -0.00092470      -0.00033248      -0.00190331
O       -4.54496145       9.61885912      12.23159545        3      -0.00064136      -0.00059757      -0.16699282
O       -3.02979037       8.74708257       7.77640636        1       0.00063673      -0.00037180      -0.00119672
C        3.02878440       0.00011056       9.97752533        2      -0.00054393      -0.00002385      -0.00663257
Ti       3.02919404       1.74880682       8.70252964        0      -0.00017022      -0.00002274       0.00259845
Ti       4.54525099       0.87890488      11.28966648        0      -0.00028494      -0.00003075      -0.00293315
O        3.03506210       1.75240745      12.23159545        3      -0.00010504       0.00014934      -0.14958175
O        4.54443633       0.87434896       7.77685771        1      -0.00032562      -0.00128798      -0.00128266
C        1.51449500       2.62303091       9.97718715        2      -0.00038174      -0.00068325      -0.00705437
Ti       1.51503978       4.37299215       8.70319597        0       0.00000723      -0.00018867       0.00355692
Ti       3.03405778       3.49725526      11.28860738        0       0.00002921      -0.00097145      -0.00414092
O        1.51820351       4.37367263      12.23159545        3       0.00013213      -0.00109256      -0.17660257
O        3.02948206       3.49820701       7.77643574        1      -0.00104768      -0.00037852      -0.00157300
C       -0.00026431       5.24658659       9.97815614        2      -0.00039490      -0.00081167      -0.00557576
Ti      -0.00010716       6.99738025       8.70395906        0       0.00006766      -0.00056131       0.00408956
Ti       1.51693360       6.12092388      11.28901826        0      -0.00007949      -0.00038633      -0.00322629
O       -0.00014258       6.99689363      12.23159545        3      -0.00027262      -0.00079865      -0.21467912
O        1.51469816       6.12275838       7.77812749        1      -0.00088003       0.00025270       0.00021286
C       -1.51625312       7.87224547       9.97806577        2      -0.00036151      -0.00041942      -0.00522295
Ti      -1.51511785       9.62174248       8.70377647        0       0.00000380      -0.00013898       0.00358960
Ti      -0.00011521       8.74728086      11.28942248        0      -0.00045069      -0.00004050      -0.00227141
O       -1.51353419       9.62316897      12.23159545        3      -0.00051266       0.00022507      -0.18144812
O       -0.00009383       8.74658761       7.77843915        1      -0.00017637      -0.00087928       0.00030584
C        6.05970806       0.00053102       9.97703333        2      -0.00017613       0.00018076      -0.00631471
Ti       6.05972305       1.74899807       8.70050970        0      -0.00053529      -0.00011727       0.00099408
Ti       7.57417930       0.87993639      11.28982255        0       0.00008950       0.00053082      -0.00227480
O        6.06037905       1.75538186      12.23159545        3      -0.00017220       0.00065633      -0.15271576
O        7.57513788       0.87448512       7.77690443        1      -0.00023798      -0.00128600      -0.00161768
C        4.54408026       2.62343234       9.97571659        2       0.00012887      -0.00015147      -0.00800739
Ti       4.54458818       4.37312151       8.69975770        0      -0.00041530      -0.00042898       0.00073741
Ti       6.06065811       3.49980798      11.27735569        0       0.00020790      -0.00040334      -0.00661906
O        4.55020958       4.37144182      12.23159545        3       0.00065478      -0.00049918      -0.15094968
O        6.05986031       3.49853927       7.77478891        1      -0.00031201      -0.00071293      -0.00415687
C        3.03032125       5.24728970       9.97651226        2       0.00009464      -0.00065526      -0.00694831
Ti       3.03021495       6.99737318       8.70270641        0      -0.00034735      -0.00080280       0.00311922
Ti       4.54944655       6.11876952      11.28790050        0       0.00059651      -0.00051234      -0.00400733
O        3.03258012       6.99431924      12.23159545        3       0.00085576      -0.00061096      -0.19015294
O        4.54500501       6.12280350       7.77644160        1      -0.00095101       0.00025651      -0.00234414
C        1.51586643       7.87231995       9.97797102        2       0.00011992      -0.00020641      -0.00510219
Ti       1.51493296       9.62180466       8.70348765        0      -0.00038026      -0.00038321       0.00333032
Ti       3.03367886       8.74816514      11.28579947        0       0.00068265      -0.00006000      -0.00249591
O        1.51382901       9.62378937      12.23159545        3       0.00016963       0.00044212      -0.18863434
O        3.02963527       8.74677328       7.77681575        1      -0.00085916      -0.00030893      -0.00095274
C        9.09099833       0.00036128       9.97696402        2       0.00014205      -0.00000852      -0.00688628
Ti       9.09078048       1.74882283       8.70172752        0      -0.00024429      -0.00020606       0.00159542
Ti      10.60597449       0.87407873      11.27983754        0       0.00005106      -0.00102356      -0.00249556
O        9.08424015       1.75324533      12.23159545        3      -0.00073505      -0.00002250      -0.15220297
O       10.60575932       0.87422147       7.77447757        1      -0.00026172      -0.00043448      -0.00222399
C        7.57542877       2.62352352       9.97578506        2      -0.00042297      -0.00035282      -0.00836024
Ti       7.57509751       4.37327469       8.69880739        0      -0.00048106      -0.00036170      -0.00020184
Ti       9.08480127       3.49797072      11.28617723        0      -0.00123817      -0.00086674      -0.00331057
O        7.57054420       4.37143623      12.23159545        3      -0.00083803      -0.00058165      -0.15353787
O        9.09020111       3.49834641       7.77592924        1       0.00048169      -0.00035146      -0.00263471
C        6.05980664       5.24854852       9.97589194        2      -0.00023795      -0.00083017      -0.00877265
Ti       6.05999063       6.99851736       8.70105076        0      -0.00033373      -0.00060139       0.00119980
Ti       7.57120407       6.11842416      11.28558061        0      -0.00101559      -0.00111284      -0.00373298
O        6.06032737       6.99014986      12.23159545        3      -0.00024575      -0.00110821      -0.15153534
O        7.57483916       6.12291057       7.77590676        1       0.00041982       0.00022098      -0.00304456
C        4.54578901       7.87272373       9.97623864        2      -0.00001188      -0.00027815      -0.00737363
Ti       4.54482863       9.62150171       8.70181498        0      -0.00041569      -0.00035258       0.00189941
Ti       6.05978356       8.74679386      11.28068035        0      -0.00039444      -0.00017445      -0.00217131
O        4.54352580       9.61955245      12.23159545        3       0.00011915      -0.00035922      -0.16692835
O        6.05996958       8.74788752       7.77451794        1      -0.00019115       0.00002525      -0.00250723
C        0.04526001       0.06779998      15.03159545       10      -0.00669572      -0.00375204       0.03059902
C        1.25781158       0.76782542      15.03159545       10       0.00103024       0.00081921       0.07999993
C       -1.16799675       2.16876389      15.03159545       10       0.00139937      -0.00166275       0.02688991
C        0.04514068       2.86768026      15.03159545       10       0.00121903      -0.00127907       0.07982967
C       -2.37938497       4.26821907      15.03159545       10      -0.00099109       0.00194907       0.04721798
C       -1.16632086       4.96693383      15.03159545       10      -0.00080836       0.00101525       0.05062943
C       -3.58943942       6.36451007      15.03159545       10      -0.00294013       0.00182756       0.04918658
C       -2.37738571       7.06514235      15.03159545       10      -0.00361584       0.00348111       0.04721304
C       -4.80163673       8.46300432      15.03159545       10      -0.00618326       0.00083559       0.03009668
C       -3.59001620       9.16412643      15.03159545       10       0.00378226       0.00461210       0.07903893
C        2.47163712       0.06765086      15.03159545       10      -0.00369250      -0.00193371       0.03775980
C        3.68221147       0.76766007      15.03159545       10      -0.00438444      -0.00123621       0.06644180
C        1.25809803       2.16886871      15.03159545       10      -0.00047296      -0.00283049       0.03035950
C        2.46944449       2.86777901      15.03159545       10       0.00071712      -0.00060698       0.06447590
C        0.04530340       4.26929059      15.03159545       10      -0.00158314       0.00005201       0.09679531
C        1.25720081       4.96702583      15.03159545       10      -0.00087933       0.00067247       0.05452906
C       -1.16563285       6.36616929      15.03159545       10      -0.00458820      -0.00000093       0.14376741
C        0.04578379       7.06551001      15.03159545       10      -0.00323365       0.00303087       0.05238068
C       -2.37623542       8.46332790      15.03159545       10      -0.00215046       0.00172679       0.10749807
C       -1.16589088       9.16389913      15.03159545       10      -0.00141170       0.00209523       0.05182300
C        4.89535280       0.06719086      15.03159545       10      -0.00141389       0.00131250       0.07552341
C        6.10542688       0.76777382      15.03159545       10       0.00021917      -0.00160640       0.05821964
C        3.68312323       2.16850094      15.03159545       10       0.00257967      -0.00072314       0.01821436
C        4.89382294       2.86752874      15.03159545       10       0.00345075      -0.00028857       0.05346555
C        2.46985726       4.26863464      15.03159545       10       0.00062763       0.00124937       0.06074523
C        3.68154290       4.96658638      15.03159545       10       0.00066526      -0.00035096       0.05632820
C        1.25705019       6.36637001      15.03159545       10      -0.00234748       0.00150377       0.15137239
C        2.46841466       7.06543570      15.03159545       10      -0.00183279       0.00211729       0.04514187
C        0.04559400       8.46404362      15.03159545       10       0.00064981       0.00337905       0.15826923
C        1.25659763       9.16392364      15.03159545       10       0.00200984       0.00048504       0.04567470
C        7.31574783       0.06738058      15.03159545       10       0.00216898      -0.00045344       0.07766572
C        8.52837515       0.76788820      15.03159545       10       0.00279106      -0.00041504       0.06071236
C        6.10500425       2.16816586      15.03159545       10       0.00442079      -0.00147621      -0.01056327
C        7.31579988       2.86754807      15.03159545       10       0.00555471       0.00137195       0.05262104
C        4.89405900       4.26630851      15.03159545       10       0.00220321       0.00023801      -0.01806684
C        6.10508090       4.96512283      15.03159545       10       0.00273045       0.00125456       0.05183798
C        3.68029438       6.36500256      15.03159545       10      -0.00017420       0.00149473       0.06457020
C        4.89298733       7.06475609      15.03159545       10       0.00117857       0.00411650       0.05718534
C        2.46703517       8.46370524      15.03159545       10       0.00496430       0.00260279       0.11949754
C        3.68047574       9.16433435      15.03159545       10       0.00438760       0.00341027       0.07559187
C        9.73869515       0.06770182      15.03159545       10      -0.00254607      -0.00300650       0.04334771
C       10.95257657       0.76782726      15.03159545       10       0.00709409       0.00030324       0.07754953
C        8.52681534       2.16871921      15.03159545       10       0.00422453      -0.00229440       0.01113200
C        9.74069201       2.86776095      15.03159545       10       0.00319211      -0.00038458       0.05783585
C        7.31612611       4.26614036      15.03159545       10       0.00190467      -0.00001871      -0.02559673
C        8.52880251       4.96614092      15.03159545       10       0.00119854      -0.00059180       0.05614331
C        6.10545863       6.36323397      15.03159545       10      -0.00022265       0.00251517       0.00628122
C        7.31793781       7.06467520      15.03159545       10      -0.00063769       0.00269234       0.05643460
C        4.89177903       8.46294899      15.03159545       10       0.00042314       0.00082855       0.03921890
C        6.10505016       9.16402501      15.03159545       10       0.00779702       0.00508110       0.07553205
