130
Lattice="12.12 0.0 0.0 -6.06 10.496227893867395 0.0 0.0 0.0 40.0" Properties=species:S:1:pos:R:3:tags:I:1:forces:R:3 energy=-1199.25577060905 stress="0.0027757733584671236 2.3177367608393484e-09 8.882311198848038e-07 2.3177367608393484e-09 0.0027761756361658514 1.3204655482791184e-06 8.882311198848038e-07 1.3204655482791184e-06 0.003056691081904049" pbc="T T F"
C        0.00030569       0.00035710       9.97227550        2      -0.00015037       0.00008561      -0.00608584
Ti      -0.00020460       1.75041472       8.69571750        0       0.00030375       0.00048090       0.00901509
Ti       1.51520788       0.87498437      11.28362894        0       0.00047843       0.00033368      -0.00185820
O        0.00031644       1.74966980      12.23159545        3      -0.00027681      -0.00077069      -0.22665774
O        1.51399119       0.87431521       7.77225654        1       0.00032961       0.00020523      -0.00359110
C       -1.51462500       2.62316131       9.97042626        2      -0.00021047      -0.00078461      -0.00656730
Ti      -1.51540420       4.37433434       8.69703924        0      -0.00021700      -0.00015107       0.00896092
Ti       0.00028726       3.49605400      11.28903307        0       0.00078462       0.00153023      -0.00320086
O       -1.51838739       4.37492544      12.23159545        3      -0.00010190      -0.00019342      -0.18687030
O        0.00003254       3.49826927       7.77299870        1      -0.00001477       0.00047295      -0.00318388
C       -3.02973777       5.24817103       9.96730648        2       0.00000785       0.00033333      -0.00629657
Ti      -3.02973538       6.99684075       8.69716756        0      -0.00038099      -0.00031500       0.00866707
Ti      -1.51605478       6.12223339      11.29031457        0       0.00025500       0.00041691      -0.00340216
O       -3.03113651       6.99419198      12.23159545        3       0.00031996       0.00035604      -0.18468968
O       -1.51462173       6.12300535       7.77321530        1      -0.00002163       0.00032305      -0.00323524
C       -4.54567301       7.87310488       9.96964711        2      -0.00045869       0.00070097      -0.00615056
Ti      -4.54411613       9.62067358       8.69560471        0       0.00004645       0.00053786       0.00865999
Ti      -3.03195750       8.74849753      11.28939485        0       0.00113021      -0.00009893      -0.00300123
O       -4.54450661       9.62138001      12.23159545        3      -0.00038027       0.00054085      -0.22574927
O       -3.03033197       8.74712559       7.77281054        1       0.00034259      -0.00004845      -0.00338090
C        3.02911765       0.00075580       9.96969223        2      -0.00069814       0.00021780      -0.00671540
Ti       3.03020526       1.74942961       8.69497694        0       0.00079608       0.00090437       0.00909498
Ti       4.54489822       0.87878740      11.28742243        0       0.00035474       0.00029022      -0.00306322
O        3.03396542       1.75177882      12.23159545        3      -0.00032693      -0.00013997      -0.19687147
O        4.54414449       0.87466769       7.77174569        1       0.00060574      -0.00011932      -0.00314362
C        1.51512478       2.62318597       9.97042716        2      -0.00051770      -0.00113067      -0.00712700
Ti       1.51525948       4.37449821       8.69669103        0       0.00094021       0.00000855       0.00978832
Ti       3.03307244       3.49725893      11.28733562        0       0.00020372       0.00091980      -0.00354295
O        1.51787558       4.37519674      12.23159545        3       0.00023256      -0.00005390      -0.18990954
O        3.02933545       3.49808827       7.77182372        1       0.00031406       0.00068463      -0.00307990
C        0.00011197       5.24703788       9.96913883        2      -0.00021078      -0.00045322      -0.00708922
Ti      -0.00005607       6.99754532       8.69854274        0       0.00037014      -0.00004691       0.00897470
Ti       1.51613094       6.12188512      11.29041086        0      -0.00038494       0.00026300      -0.00383419
O        0.00044749       6.99865501      12.23159545        3       0.00006056       0.00042360      -0.17361433
O        1.51454344       6.12307780       7.77329199        1       0.00012449       0.00042601      -0.00323601
C       -1.51597272       7.87297310       9.96898812        2      -0.00048498       0.00048158      -0.00629431
Ti      -1.51420168       9.62133744       8.69681718        0       0.00026936       0.00100722       0.00896216
Ti      -0.00033464       8.74923246      11.29012255        0       0.00021207      -0.00014641      -0.00344643
O       -1.51269179       9.62323294      12.23159545        3       0.00028191      -0.00013750      -0.18881098
O        0.00002555       8.74640053       7.77333201        1       0.00008722       0.00024230      -0.00336288
C        6.05985600       0.00046476       9.96700542        2       0.00013943       0.00022995      -0.00643148
Ti       6.06011482       1.74889643       8.69399289        0      -0.00003714       0.00114170       0.00814509
Ti       7.57527031       0.87944712      11.28856158        0      -0.00040914       0.00010992      -0.00255187
O        6.06067887       1.75269863      12.23159545        3       0.00066403       0.00067025      -0.15197163
O        7.57573462       0.87479223       7.77196184        1       0.00006589      -0.00000988      -0.00287050
C        4.54435331       2.62376079       9.96907762        2       0.00055992      -0.00034924      -0.00704271
Ti       4.54452783       4.37385786       8.69403393        0       0.00072512      -0.00036402       0.00887234
Ti       6.06010521       3.49896219      11.28887829        0      -0.00021418       0.00061299      -0.00275905
O        4.54847046       4.37280339      12.23159545        3       0.00099249       0.00017623      -0.14441943
O        6.06002967       3.49887974       7.77288106        1       0.00032435       0.00021444      -0.00339337
C        3.02997534       5.24788200       9.96704227        2       0.00019871       0.00032254      -0.00683083
Ti       3.02989993       6.99698906       8.69730419        0       0.00056364      -0.00057417       0.00891730
Ti       4.54917930       6.12039349      11.28997091        0      -0.00044738      -0.00055588      -0.00362954
O        3.03111564       6.99471724      12.23159545        3       0.00034636       0.00075735      -0.18626882
O        4.54541553       6.12333460       7.77229738        1      -0.00005660       0.00018899      -0.00292654
C        1.51593640       7.87281815       9.96910697        2       0.00062257       0.00091092      -0.00679141
Ti       1.51446902       9.62158965       8.69720062        0      -0.00004647       0.00083330       0.00833773
Ti       3.03154349       8.74812611      11.28972312        0      -0.00057769      -0.00082054      -0.00312533
O        1.51305999       9.62351715      12.23159545        3       0.00010157       0.00026145      -0.18766145
O        3.03020360       8.74702968       7.77271531        1       0.00001170       0.00018246      -0.00291227
C        9.09109022       0.00061069       9.96897783        2       0.00083568       0.00063543      -0.00628165
Ti       9.08992209       1.74928189       8.69560488        0      -0.00060708       0.00065171       0.00779516
Ti      10.60653378       0.87460608      11.28416802        0       0.00023292       0.00030985      -0.00151446
O        9.08648412       1.75174240      12.23159545        3      -0.00021439       0.00006301      -0.18701989
O       10.60618379       0.87437794       7.77217204        1      -0.00033809       0.00016431      -0.00316932
C        7.57537684       2.62375946       9.96900829        2       0.00043668      -0.00001573      -0.00635537
Ti       7.57555506       4.37378073       8.69412584        0      -0.00072230      -0.00034641       0.00804314
Ti       9.08673772       3.49757144      11.28893680        0      -0.00007907       0.00080384      -0.00244395
O        7.57176609       4.37221210      12.23159545        3       0.00010313      -0.00007763      -0.13376172
O        9.09060374       3.49817098       7.77235568        1      -0.00004889       0.00047368      -0.00304140
C        6.05988881       5.24841220       9.96919599        2       0.00073487       0.00037221      -0.00647927
Ti       6.05993299       6.99764625       8.69579403        0      -0.00017048      -0.00092496       0.00810609
Ti       7.57167896       6.12024299      11.29000680        0       0.00021207      -0.00028390      -0.00286965
O        6.06014953       6.99331040      12.23159545        3       0.00020429       0.00042232      -0.17866901
O        7.57467080       6.12341418       7.77255072        1       0.00048389       0.00003761      -0.00317269
C        4.54586538       7.87295104       9.96887890        2       0.00090201       0.00126198      -0.00631209
Ti       4.54380723       9.62070336       8.69559870        0       0.00003907       0.00020249       0.00839472
Ti       6.06051712       8.74894959      11.28399978        0       0.00013945      -0.00044859      -0.00157578
O        4.54434343       9.62099340      12.23159545        3       0.00109965       0.00122645      -0.22445269
O        6.06014443       8.74812766       7.77197506        1       0.00004551      -0.00029238      -0.00338892
C        0.04469228       0.06706077      15.31580598       10      -0.00040686      -0.00072854       0.06568747
C        1.25767254       0.76739233      15.31580598       10       0.00066518       0.00010640       0.05354796
C       -1.16876867       2.16811606      15.31580598       10       0.00068111      -0.00243954       0.03287568
C        0.04471736       2.86742481      15.31580598       10      -0.00124319      -0.00149589       0.04874613
C       -2.38136629       4.26638619      15.31580598       10       0.00076156      -0.00072728       0.05588321
C       -1.16795901       4.96566301      15.31580598       10       0.00007086       0.00061902       0.05203054
C       -3.59165323       6.36301670      15.31580598       10      -0.00065373       0.00067298       0.05733340
C       -2.37916964       7.06394038      15.31580598       10      -0.00226441       0.00122001       0.05627579
C       -4.80235039       8.46194689      15.31580598       10      -0.00357630       0.00036330       0.03229074
C       -3.59013976       9.16321026      15.31580598       10      -0.00078551      -0.00000486       0.04810454
C        2.47083770       0.06740528      15.31580598       10      -0.00139186       0.00018147       0.03280844
C        3.68277539       0.76815937      15.31580598       10      -0.00197134      -0.00154319       0.06333973
C        1.25805752       2.16802472      15.31580598       10      -0.00162138      -0.00105923       0.03388927
C        2.47076924       2.86740524      15.31580598       10      -0.00070477      -0.00271560       0.06587364
C        0.04478810       4.26715662      15.31580598       10      -0.00082433      -0.00087738       0.09257707
C        1.25762718       4.96585174      15.31580598       10      -0.00078770      -0.00040157       0.04536734
C       -1.16711407       6.36481830      15.31580598       10      -0.00333352       0.00131731       0.11180292
C        0.04508874       7.06464223      15.31580598       10      -0.00343113       0.00074709       0.06307091
C       -2.37793233       8.46337860      15.31580598       10      -0.00195609      -0.00013435       0.09830523
C       -1.16644952       9.16425117      15.31580598       10      -0.00172268      -0.00096143       0.04540669
C        4.89445229       0.06853111      15.31580598       10      -0.00120570       0.00075218       0.07199510
C        6.10485717       0.76900497      15.31580598       10       0.00048644      -0.00089536       0.06671867
C        3.68358841       2.16818981      15.31580598       10      -0.00017675      -0.00245975       0.02659232
C        4.89399935       2.86742632      15.31580598       10       0.00183786      -0.00241504       0.07518058
C        2.47100225       4.26664029      15.31580598       10      -0.00050049      -0.00185025       0.06377799
C        3.68263746       4.96486159      15.31580598       10      -0.00000011       0.00051364       0.06941877
C        1.25717617       6.36499856      15.31580598       10      -0.00217952       0.00144821       0.11693900
C        2.46913007       7.06427975      15.31580598       10      -0.00025296       0.00144961       0.05713616
C        0.04504472       8.46414871      15.31580598       10      -0.00064074      -0.00001459       0.12084009
C        1.25648180       9.16433359      15.31580598       10       0.00103974      -0.00168220       0.05322751
C        7.31548155       0.06861485      15.31580598       10       0.00133827       0.00011216       0.07458385
C        8.52685593       0.76827917      15.31580598       10       0.00106793      -0.00004484       0.06231854
C        6.10492232       2.16831913      15.31580598       10       0.00322905      -0.00152479       0.03217115
C        7.31561068       2.86746486      15.31580598       10       0.00306820      -0.00159291       0.08817768
C        4.89431435       4.26571243      15.31580598       10       0.00070401      -0.00051879       0.03300454
C        6.10504336       4.96445832      15.31580598       10       0.00100159      -0.00003665       0.09832929
C        3.68159336       6.36337653      15.31580598       10       0.00017110       0.00152527       0.06816743
C        4.89317037       7.06265012      15.31580598       10       0.00109252       0.00009520       0.06247209
C        2.46801367       8.46371283      15.31580598       10       0.00163228       0.00060294       0.10533597
C        3.68009280       9.16350520      15.31580598       10       0.00056693      -0.00071389       0.04588219
C        9.73866618       0.06764212      15.31580598       10      -0.00028248      -0.00026313       0.03602027
C       10.95172026       0.76748806      15.31580598       10       0.00245042      -0.00091791       0.05443865
C        8.52587909       2.16812180      15.31580598       10       0.00183730      -0.00122654       0.03007041
C        9.73865947       2.86721967      15.31580598       10       0.00027117      -0.00045488       0.06646565
C        7.31567788       4.26555088      15.31580598       10       0.00025964      -0.00092660       0.03315200
C        8.52713559       4.96464400      15.31580598       10      -0.00063430       0.00098282       0.07481359
C        6.10488890       6.36207001      15.31580598       10       0.00102714       0.00064925       0.03151145
C        7.31673048       7.06248203      15.31580598       10      -0.00134968       0.00209976       0.06392362
C        4.89229239       8.46213425      15.31580598       10      -0.00144977      -0.00078178       0.03595292
C        6.10491737       9.16275871      15.31580598       10      -0.00074405       0.00017948       0.05658736
