131
Lattice="12.12 0.0 0.0 -6.06 10.496227893867395 0.0 0.0 0.0 40.0" Properties=species:S:1:pos:R:3:tags:I:1:forces:R:3 energy=-1205.666663677068 stress="0.0028367198147787043 -6.89078199628793e-08 1.2733235237221785e-07 -6.89078199628793e-08 0.0028371257389801876 3.821874307098794e-07 1.2733235237221785e-07 3.821874307098794e-07 0.0028158006511035246" pbc="T T F"
C        0.24722800      -0.10613915       9.99378389        2      -0.00145032       0.00110348       0.00140254
Ti       0.25205795       1.63717472       8.70520482        0      -0.00074248      -0.00144094       0.00160588
Ti       1.78177890       0.78596415      11.26190533        0      -0.00136061       0.00092152      -0.00200663
O        0.23607754       1.65325039      12.23008024        3       0.00038782       0.00015775      -0.25396361
O        1.77412755       0.75532588       7.78623228        1       0.00136843      -0.00008682       0.00108399
C       -1.26380283       2.51392648       9.99692278        2       0.00019791      -0.00118675      -0.00031099
Ti      -1.26495895       4.26507652       8.70518801        0      -0.00143622      -0.00161298       0.00122352
Ti       0.24506421       3.38505197      11.31499180        0       0.00031309       0.00005587       0.00104749
O       -1.25924417       4.24322919      12.23008024        3       0.00107044       0.00033116      -0.25397980
O        0.25143564       3.38867790       7.76986873        1      -0.00029178      -0.00133531      -0.00163544
C       -2.77705553       5.13242908       9.99381282        2      -0.00150808       0.00048925       0.00208512
Ti      -2.77726441       6.90060345       8.77852083        0       0.00054964      -0.00000302      -0.00110658
Ti      -1.23737240       6.01536613      11.26183565        0      -0.00041397       0.00082035      -0.00137501
O       -2.77710046       6.73649163      12.23008024        3      -0.00075028      -0.00390226       0.12992540
O       -1.26747207       6.02412078       7.78625688        1      -0.00193207       0.00045602       0.00012019
C       -4.30744692       7.75422462      10.04729065        2      -0.00094758      -0.00238646      -0.00213373
Ti      -4.28159934       9.50592440       8.77863401        0      -0.00036638       0.00023587      -0.00155000
Ti      -2.77733741       8.63791034      12.01465244        0       0.00095292      -0.00132186      -0.00050933
O       -4.42433726       9.58847920      12.23008024        3      -0.00022194       0.00024106       0.13128006
O       -2.77769738       8.63736627       7.84142459        1       0.00183773       0.00012138       0.00181011
C        3.28250982      -0.09199050      10.04752315        2       0.00141796       0.00158337      -0.00260784
Ti       3.28263701       1.64742895       8.68921147        0       0.00081844       0.00061419      -0.00154857
Ti       4.78387198       0.78583517      11.26164304        0      -0.00021652       0.00022416       0.00040951
O        3.28279314       1.65686147      12.23008024        3       0.00003143       0.00160180      -0.20305000
O        4.79083945       0.75480857       7.78622259        1       0.00081988       0.00142380       0.00150571
C        1.76538057       2.52411930       9.99471856        2      -0.00082802      -0.00035751      -0.00047744
Ti       1.76463286       4.26200488       8.71308113        0      -0.00259558       0.00028034      -0.00032108
Ti       3.28282709       3.39572410      11.30021292        0       0.00108928      -0.00083794       0.00048735
O        1.76841817       4.26452124      12.23008024        3       0.00016768      -0.00023613      -0.18481938
O        3.28329030       3.38609621       7.76802496        1      -0.00347848      -0.00221839      -0.00173882
C        0.25971631       5.13198680       9.99460120        2       0.00012449      -0.00023385       0.00194199
Ti       0.25942038       6.88413532       8.68921284        0      -0.00013582      -0.00006904      -0.00158703
Ti       1.77328918       6.01048538      11.30024979        0      -0.00051398       0.00005807       0.00003227
O        0.26754815       6.87976055      12.23008024        3      -0.00007958      -0.00074672      -0.20328267
O        1.76528259       6.01513234       7.76799867        1      -0.00257066      -0.00017513      -0.00136883
C       -1.24721614       7.75405304      10.04733083        2       0.00190481      -0.00119991      -0.00182536
Ti      -1.27379316       9.50545582       8.77872459        0       0.00364272       0.00129358      -0.00132389
Ti       0.26369740       8.61529097      11.26164729        0      -0.00227325      -0.00050281      -0.00002696
O       -1.13043203       9.58824822      12.23008024        3       0.00273904       0.00182761       0.12940702
O        0.24028127       8.63646009       7.78626069        1       0.00118801       0.00227979       0.00009528
C        6.31808632      -0.10644799       9.99377619        2      -0.00042527       0.00173575       0.00147541
Ti       6.31304840       1.63651656       8.70528213        0       0.00107822       0.00160616      -0.00044462
Ti       7.82579874       0.76435584      11.31229858        0      -0.00099290      -0.00172933       0.00221636
O        6.32936848       1.65319635      12.23008024        3      -0.00010206      -0.00038844      -0.25438300
O        7.82752358       0.76501713       7.76957660        1       0.00149323       0.00177209      -0.00079629
C        4.80033174       2.52384793       9.99462841        2      -0.00025079       0.00049599       0.00130762
Ti       4.80169757       4.26187020       8.71308744        0       0.00058855      -0.00065870      -0.00022806
Ti       6.32063166       3.38488629      11.31518523        0      -0.00127869       0.00156654       0.00071697
O        4.79734166       4.26451327      12.23008024        3      -0.00044974      -0.00014098      -0.18553248
O        6.31452684       3.38803908       7.76992234        1      -0.00031378       0.00163627      -0.00140525
C        3.28301449       5.13880863       9.99742255        2      -0.00055506      -0.00016149      -0.00032909
Ti       3.28305642       6.89225569       8.71312513        0      -0.00169834       0.00118272      -0.00063242
Ti       4.79255823       6.01052017      11.30011548        0      -0.00037151      -0.00098538       0.00074325
O        3.28288256       6.88769606      12.23008024        3      -0.00003044      -0.00133061      -0.18527572
O        4.80084533       6.01489495       7.76800016        1       0.00030610       0.00224572      -0.00235217
C        1.77704075       7.76035690       9.99459941        2       0.00072735      -0.00048344       0.00144470
Ti       1.76484871       9.51386441       8.70516329        0       0.00352296       0.00224685       0.00072940
Ti       3.28266437       8.64671915      11.31515624        0       0.00115928      -0.00152342       0.00052257
O        1.78739603       9.52013472      12.23008024        3      -0.00009028      -0.00045684      -0.25412140
O        3.28242958       8.63941776       7.76990719        1       0.00220960      -0.00100825      -0.00156162
C        9.34255193      -0.10744785       9.99695049        2       0.00133773      -0.00020653      -0.00057633
Ti       9.34246943       1.63983200       8.71609675        0       0.00140239       0.00076911       0.00218570
Ti      10.85990954       0.76424368      11.31249803        0       0.00055128      -0.00018422       0.00081133
O        9.34280056       1.64012279      12.23008024        3      -0.00067940      -0.00006189      -0.15756840
O       10.85756686       0.76543599       7.76957446        1       0.00000273       0.00036557      -0.00057834
C        7.82932562       2.51370130       9.99689072        2       0.00044530      -0.00012638       0.00075484
Ti       7.83082309       4.26475020       8.70532669        0      -0.00075045       0.00130639      -0.00036310
Ti       9.34278435       3.39201011      11.31241922        0       0.00098500       0.00004180       0.00171509
O        7.82469505       4.24322424      12.23008024        3       0.00060010       0.00061960      -0.25450121
O        9.34292571       3.38926427       7.76960639        1      -0.00055354      -0.00079042      -0.00078491
C        6.30617215       5.13195106       9.99452110        2      -0.00031316       0.00017668       0.00222321
Ti       6.30638083       6.88439290       8.68895128        0       0.00038884      -0.00056120      -0.00040239
Ti       7.80317828       6.01551889      11.26161151        0      -0.00082698      -0.00157115      -0.00009520
O        6.29833229       6.87989048      12.23008024        3      -0.00113924      -0.00141247      -0.20375024
O        7.83342191       6.02398800       7.78617428        1      -0.00139433       0.00125832       0.00109251
C        4.78851353       7.76037168       9.99462340        2      -0.00066903       0.00037492      -0.00038872
Ti       4.79978634       9.51433777       8.70518386        0       0.00071134      -0.00000246       0.00154068
Ti       6.30196323       8.61521257      11.26167810        0      -0.00150687       0.00066079      -0.00119982
O        4.77795908       9.52011696      12.23008024        3       0.00094556       0.00007030      -0.25423419
O        6.32461647       8.63707172       7.78620979        1       0.00022235      -0.00196672       0.00036595
C       -0.35432401       0.24086435      15.82612635       10      -0.00160326       0.00033505       0.08539638
C        0.85643283       0.93988820      15.81083430       10      -0.00036484      -0.00101423       0.09524970
C       -1.56451851       2.33970718      15.83144705       10       0.00053457       0.00090634       0.03631160
C       -0.35259308       3.03940321      15.81373662       10      -0.00022582       0.00018320       0.07959913
C       -2.77705875       4.43722906      15.82612635       10      -0.00004262      -0.00038860       0.08535762
C       -1.56632170       5.13627097      15.81083430       10      -0.00051947       0.00078730       0.09521379
C       -3.98402302       6.54114524      15.76301560       10       0.00123670      -0.00157452       0.11230117
C       -2.77711451       7.22712811      15.72119338       10       0.00114178       0.00026662      -0.58554344
C       -5.19580015       8.63993296      15.76301560       10      -0.00059261      -0.00080585       0.11241883
C       -3.99831571       9.34219205      15.72119338       10       0.00071769      -0.00014444      -0.58067403
C        2.07111794       0.23413946      15.76301560       10       0.00040471       0.00164995       0.11244875
C        3.28291444       0.93987668      15.73093692       10      -0.00111817      -0.00147693       0.24566108
C        0.85915647       2.33809411      15.79979133       10      -0.00038185       0.00054072       0.03216851
C        2.07077319       3.03805419      15.77787692       10      -0.00035835      -0.00053654       0.03555668
C       -0.35408577       4.43946338      15.79979133       10      -0.00039060       0.00105362       0.03209732
C        0.85788517       5.13880311      15.77787692       10       0.00022563       0.00011783       0.03549759
C       -1.57019041       6.54112634      15.76301560       10       0.00007810      -0.00041588       0.11225401
C       -0.35309338       7.23765281      15.73093692       10      -0.00082564       0.00050426       0.24570276
C       -2.77710590       8.63725405      15.26838772       10       0.00056459       0.00033474       0.71741598
C       -1.55585123       9.34220952      15.72119338       10      -0.00097229      -0.00145499      -0.58174195
C        4.49467969       0.23415338      15.76301560       10       0.00154490       0.00171375       0.11246915
C        5.70937531       0.93992483      15.81083430       10       0.00007109      -0.00041422       0.09524897
C        3.28292311       2.33610197      15.76327063       10       0.00019977      -0.00125883       0.00599840
C        4.49508044       3.03806344      15.77787692       10      -0.00102603      -0.00024408       0.03555886
C        2.07023350       4.43824951      15.77519531       10       0.00074303       0.00043749       0.06511489
C        3.28289908       5.13837685      15.77019454       10       0.00013843      -0.00079375       0.05274628
C        0.85606972       6.53954227      15.76327063       10       0.00000820       0.00067189       0.00605867
C        2.07009471       7.23832602      15.77787692       10      -0.00182804      -0.00075515       0.03553746
C       -0.35834346       8.63993299      15.76301560       10       0.00019981       0.00191842       0.11243425
C        0.86020478       9.33907420      15.81083430       10      -0.00162382      -0.00163530       0.09514728
C        6.92013035       0.24089778      15.82612635       10       0.00121800       0.00073615       0.08534753
C        8.13166523       0.94041862      15.83306487       10       0.00246403      -0.00066042       0.07518806
C        5.70670338       2.33816354      15.79979133       10       0.00018611      -0.00195863       0.03213714
C        6.91845401       3.03946251      15.81373662       10       0.00007540       0.00048478       0.07956827
C        4.49555856       4.43824930      15.77519531       10       0.00050761       0.00027305       0.06509997
C        5.70793499       5.13876778      15.77787692       10       0.00021130       0.00061307       0.03551856
C        3.28292848       6.53861054      15.77519531       10      -0.00041715       0.00143507       0.06507359
C        4.49578398       7.23827027      15.77787692       10       0.00052691       0.00131205       0.03557176
C        2.06975473       8.63759658      15.79979133       10      -0.00146264       0.00076938       0.03212489
C        3.28294963       9.33637219      15.81373662       10       0.00068009      -0.00114530       0.07962237
C        9.34290815       0.23954812      15.83144705       10      -0.00181258      -0.00077778       0.03632062
C       10.55409390       0.94036074      15.83306487       10       0.00170060       0.00021939       0.07515042
C        8.13036140       2.33978261      15.83144705       10      -0.00013795      -0.00152211       0.03630083
C        9.34294564       3.03823124      15.83306487       10      -0.00063302       0.00065542       0.07514726
C        6.91995719       4.43951543      15.79979133       10      -0.00036552      -0.00017324       0.03209533
C        8.13220749       5.13629437      15.81083430       10      -0.00055499       0.00037007       0.09525041
C        5.70976158       6.53948361      15.76327063       10       0.00025817       0.00139071       0.00602166
C        6.91888996       7.23762105      15.73093692       10       0.00162248       0.00218138       0.24566852
C        4.49618119       8.63756836      15.79979133       10      -0.00239613      -0.00029838       0.03215061
C        5.70567034       9.33902237      15.81083430       10       0.00171293       0.00126004       0.09522846
O       -2.77728366       8.63837885      13.86135274       11      -0.00011336      -0.00432043       0.00515298
