132
Lattice="12.12 0.0 0.0 -6.06 10.496227893867395 0.0 0.0 0.0 40.0" Properties=species:S:1:pos:R:3:tags:I:1:forces:R:3 energy=-1210.9357023504479 stress="0.002892021342990065 2.342519455588448e-06 1.2175162412816297e-08 2.342519455588448e-06 0.002880864469230194 -7.021983441785122e-07 1.2175162412816297e-08 -7.021983441785122e-07 0.002524568245033266" pbc="T T F"
C        0.00084766       0.00315406      10.00462247        2       0.00007790      -0.00015091       0.00068615
Ti       0.00152719       1.75352129       8.71829147        0       0.00061040      -0.00053177      -0.00120641
Ti       1.51537346       0.87877831      11.30131649        0       0.00243936      -0.00022791      -0.00268870
O        0.00215452       1.74811231      12.23008024        3       0.00018016       0.00004050       0.03546207
O        1.51407140       0.87958612       7.77870001        1      -0.00072602       0.00035184      -0.00049843
C       -1.51495359       2.62917929      10.01388689        2      -0.00006333       0.00058879       0.00202570
Ti      -1.51359664       4.37739265       8.72131633        0      -0.00039328       0.00083323       0.00145396
Ti      -0.00301031       3.50142729      11.31502469        0       0.00110732       0.00165508      -0.00154057
O       -1.50891656       4.38854782      12.23008024        3       0.00381345       0.00441684      -0.17057526
O       -0.00137933       3.50235204       7.78210731        1       0.00091708       0.00056189      -0.00143283
C       -3.02953385       5.25168777      10.01052119        2       0.00079401      -0.00127955       0.00288997
Ti      -3.02865915       7.00227813       8.71875371        0       0.00039000      -0.00114977       0.00016216
Ti      -1.51365272       6.12406897      11.30913943        0       0.00226230       0.00241754      -0.00091964
O       -3.03057967       7.00445786      12.23008024        3      -0.00012431       0.00028615       0.06900340
O       -1.51482775       6.12420918       7.78110964        1      -0.00043151       0.00006726      -0.00019512
C       -4.54392844       7.87651115      10.00410375        2      -0.00016580      -0.00003357       0.00165459
Ti      -4.54370875       9.62496654       8.71556911        0      -0.00205477       0.00126149       0.00051600
Ti      -3.02965170       8.75123179      11.29957445        0       0.00102528      -0.00010476      -0.00139467
O       -4.54425053       9.62514423      12.23008024        3      -0.00248349      -0.00016863       0.06291774
O       -3.02942368       8.74930774       7.77662948        1      -0.00008056       0.00005378      -0.00062113
C        3.03134597       0.00299813      10.00260913        2      -0.00103309       0.00081814       0.00254367
Ti       3.03115588       1.75286089       8.71631824        0      -0.00115555      -0.00028761      -0.00024033
Ti       4.54408580       0.87804286      11.30100429        0       0.00138851      -0.00011051      -0.00075211
O        3.03052224       1.75172214      12.23008024        3      -0.00041093       0.00100822       0.07219221
O        4.54663201       0.87953797       7.77724796        1      -0.00015545       0.00025350       0.00082638
C        1.51547033       2.62742460      10.00721747        2      -0.00027592      -0.00064265      -0.00021766
Ti       1.51536567       4.37649232       8.71931246        0       0.00153075       0.00071187       0.00176758
Ti       3.03016703       3.50150729      11.30172323        0      -0.00076860       0.00236407      -0.00208042
O        1.51927672       4.37810088      12.23008024        3       0.00034865      -0.00019157       0.06882771
O        3.03001824       3.50287650       7.77915493        1       0.00067354      -0.00032696       0.00050253
C        0.00098783       5.25201380      10.00827167        2       0.00080609       0.00097266      -0.00138266
Ti       0.00060255       7.00103093       8.71779286        0      -0.00175643       0.00173400       0.00051872
Ti       1.51602906       6.12615672      11.30082612        0       0.00166658       0.00039982       0.00056018
O        0.00278752       7.00326616      12.23008024        3       0.00055217       0.00221452       0.06220143
O        1.51525000       6.12538512       7.77916042        1      -0.00033187       0.00077588      -0.00016251
C       -1.51437101       7.87769484      10.00377770        2      -0.00020731       0.00194810       0.00043375
Ti      -1.51423252       9.62506054       8.71421001        0       0.00125345       0.00024539       0.00341079
Ti       0.00007293       8.75012819      11.29985641        0      -0.00044356       0.00176028      -0.00186932
O       -1.51472045       9.62477241      12.23008024        3      -0.00033696       0.00051144       0.04639430
O        0.00151004       8.74962582       7.77708428        1      -0.00022788       0.00044768       0.00092573
C        6.05984856       0.00281200      10.00352942        2      -0.00153599      -0.00023313      -0.00025637
Ti       6.06046745       1.75280755       8.71746291        0       0.00132684      -0.00133126      -0.00220167
Ti       7.57112249       0.87397681      11.29235477        0       0.00123829       0.00047460      -0.00125353
O        6.05900901       1.75169266      12.23008024        3       0.00064994       0.00045187       0.05438653
O        7.57761950       0.88029650       7.77982241        1       0.00061494       0.00066827       0.00005852
C        4.54518524       2.62697402      10.00501707        2       0.00117171      -0.00110303       0.00134245
Ti       4.54553943       4.37698349       8.71732770        0       0.00016656      -0.00104727       0.00048533
Ti       6.06115319       3.50143454      11.30455401        0      -0.00055201      -0.00181703      -0.00137861
O        4.54416322       4.37783706      12.23008024        3       0.00119271      -0.00222051       0.05904055
O        6.06263962       3.50254857       7.77998487        1      -0.00026915      -0.00104265       0.00202595
C        3.03063863       5.25127572      10.00520351        2       0.00097981       0.00096470       0.00023415
Ti       3.03064850       7.00062670       8.71584434        0      -0.00006427      -0.00035782       0.00144738
Ti       4.54497473       6.12628348      11.30127905        0      -0.00113944      -0.00094278       0.00005264
O        3.03081492       7.00108491      12.23008024        3       0.00055160       0.00122334       0.05209656
O        4.54616063       6.12594724       7.77826783        1      -0.00076569      -0.00064537       0.00067331
C        1.51559403       7.87545732      10.00422624        2       0.00001358       0.00164675       0.00111380
Ti       1.51600574       9.62503189       8.71540961        0      -0.00186686       0.00149474      -0.00059156
Ti       3.03121774       8.75039008      11.30155287        0      -0.00014203      -0.00062069      -0.00095116
O        1.51612759       9.62361525      12.23008024        3       0.00050770       0.00081241       0.05244291
O        3.03100487       8.75078465       7.77767834        1      -0.00138675      -0.00020233      -0.00021793
C        9.09074912       0.00271024      10.00503017        2       0.00145184      -0.00099111      -0.00278922
Ti       9.09059273       1.75370201       8.72192955        0      -0.00089927       0.00025416      -0.00006570
Ti      10.61174413       0.87336596      11.28979832        0      -0.00115589       0.00086783      -0.00337891
O        9.08790086       1.74349802      12.23008024        3      -0.00168684      -0.00612392       0.29016406
O       10.60473200       0.88076836       7.78019722        1       0.00025904      -0.00052981      -0.00121320
C        7.57745750       2.62875269      10.01019165        2       0.00231323       0.00138459       0.00097817
Ti       7.57562912       4.37716279       8.71737313        0      -0.00030810      -0.00066570       0.00180265
Ti       9.09027286       3.51191328      11.30044353        0       0.00450373      -0.00289212       0.00358561
O        7.57032881       4.37902660      12.23008024        3       0.00223224      -0.00060515       0.02938474
O        9.09170457       3.50200390       7.78110579        1       0.00022860       0.00055787       0.00298835
C        6.06080168       5.25186071      10.00587799        2       0.00032336      -0.00026733       0.00256727
Ti       6.06108508       7.00116455       8.71694553        0       0.00022017      -0.00068973       0.00116872
Ti       7.57434145       6.12582644      11.30511967        0       0.00137837       0.00170917      -0.00151672
O        6.05977587       7.00213952      12.23008024        3       0.00224036       0.00120765       0.06958296
O        7.57694560       6.12495335       7.77979333        1      -0.00008916       0.00092643       0.00154449
C        4.54603272       7.87564868      10.00428588        2      -0.00048668      -0.00015004       0.00137629
Ti       4.54565146       9.62512313       8.71421084        0      -0.00037804      -0.00050233       0.00028252
Ti       6.06084200       8.74995522      11.30216918        0      -0.00192039      -0.00002974      -0.00465051
O        4.54628106       9.62157470      12.23008024        3       0.00064714       0.00128165       0.06051775
O        6.06038081       8.75062086       7.77765753        1       0.00033036      -0.00128633      -0.00085479
C        0.05771569       0.06773535      16.42520168       10      -0.00039000       0.00037896      -0.02085002
C        1.26655452       0.76995881      16.43358991       10       0.00638420       0.00257378       0.00799157
C       -1.13987361       2.15695806      16.40083101       10       0.00021907      -0.00096192       0.33925445
C        0.05374234       2.86816893      16.40846975       10      -0.00033899      -0.00271452       0.03514591
C       -2.37383664       4.29652365      16.40082546       10       0.00266064      -0.00408170       0.56248350
C       -1.16209138       4.97409355      16.40846719       10      -0.00321128      -0.00492931       0.01738898
C       -3.58498538       6.37761161      16.42520113       10       0.00685594      -0.00599095      -0.01882519
C       -2.37250058       7.07315887      16.43358971       10       0.00030249       0.00262499       0.01131635
C       -4.79552000       8.46941983      16.42330874       10      -0.00604376      -0.00404123      -0.01383843
C       -3.58377041       9.16897147      16.43459840       10      -0.00192475       0.00087864      -0.02755121
C        2.47775340       0.07115940      16.43562342       10      -0.00069247       0.00268308      -0.02685285
C        3.68811850       0.77184291      16.43459831       10      -0.00083317      -0.00299885      -0.01927596
C        1.26911959       2.16839795      16.42520189       10      -0.00117403       0.00154136      -0.01931188
C        2.47706143       2.87100085      16.41614176       10       0.00128927      -0.00200822      -0.02022281
C        0.05160505       4.27063494      16.38234187       10      -0.00207736      -0.00111649       0.16889952
C        1.26243714       4.96942589      16.39401182       10      -0.00021477      -0.00031274      -0.07371155
C       -1.16028521       6.37668059      16.42520113       10      -0.00037470      -0.00475891      -0.01745259
C        0.05202819       7.07047312      16.41614186       10      -0.00295920       0.00025306      -0.02983678
C       -2.37189784       8.47075339      16.43562363       10      -0.00040088       0.00274143      -0.00902506
C       -1.16016268       9.16879159      16.43459840       10      -0.00100684       0.00101892      -0.02301126
C        4.89836075       0.07090987      16.43562342       10       0.00216826       0.00365014      -0.00979542
C        6.10937159       0.77008907      16.43358991       10      -0.00334266       0.00223034       0.01111598
C        3.68802499       2.17108263      16.42330861       10      -0.00240504      -0.00239045      -0.00237490
C        4.89917756       2.87085232      16.41614176       10      -0.00591299       0.00234169      -0.01632062
C        2.47569744       4.27032261      16.40225826       10      -0.00167839      -0.00021272      -0.02254787
C        3.68761855       4.96992224      16.39947040       10      -0.00007341      -0.00113622      -0.00008224
C        1.26285372       6.36952535      16.40225816       10      -0.00125465       0.00188401      -0.01820151
C        2.47506535       7.06889011      16.39947029       10       0.00172772       0.00157404      -0.00357983
C        0.05141224       8.46877066      16.42330874       10       0.00226304      -0.00070029       0.00775799
C        1.26287600       9.16759565      16.41614161       10       0.00231033      -0.00419442      -0.02311246
C        7.31857534       0.06828623      16.42520168       10      -0.00266301      -0.00048852       0.00711356
C        8.53230547       0.77097130      16.40846956       10      -0.00076797      -0.00202767       0.03584703
C        6.10714618       2.16851996      16.42520189       10      -0.00620675       0.00108982      -0.00997906
C        7.32320909       2.86830332      16.40846975       10      -0.00367634       0.00028308       0.02880148
C        4.89972392       4.27025122      16.40225826       10       0.00039735       0.00261817      -0.02822074
C        6.11346656       4.96932192      16.39401182       10       0.00239303       0.00187131      -0.05294703
C        3.68746188       6.36944779      16.39639240       10      -0.00213538      -0.00064016      -0.02870137
C        4.89983771       7.06919628      16.39947029       10      -0.00144788       0.00071725       0.00125598
C        2.47496993       8.46844899      16.40225799       10       0.00275023       0.00143979      -0.01352042
C        3.68751157       9.16960378      16.39401141       10       0.00149424      -0.00016974      -0.05491213
C        9.74765148       0.07144273      16.38234182       10      -0.00219497       0.00090129       0.13339789
C       10.96361223       0.76971587      16.40846956       10       0.00218999       0.00267109       0.02612621
C        8.51548341       2.15833223      16.40083101       10      -0.00147438      -0.00160195       0.27976387
C        9.74583248       2.86809233      16.15647175       10      -0.00335666       0.00165318      -2.08059618
C        7.32457096       4.27075687      16.38234187       10       0.00092364      -0.00022085       0.13848164
C        8.53710596       4.97494559      16.40846719       10      -0.00110227      -0.00227252       0.04413580
C        6.11198111       6.37001602      16.40225816       10       0.00080450       0.00285381      -0.02936509
C        7.32302133       7.07136634      16.41614186       10       0.00124261       0.00053626      -0.01544945
C        4.90014030       8.46862199      16.40225799       10      -0.00611290       0.00025362      -0.03220070
C        6.11276987       9.16734130      16.41614161       10      -0.00138618       0.00217012      -0.01854727
O        9.83534214       2.96546689      14.61801683       11       0.00639626      -0.00272784       0.00581429
H        9.45156888       2.21314238      14.11488203       12       0.00595528      -0.00585768      -0.00199485
