132
Lattice="12.12 0.0 0.0 -6.06 10.496227893867395 0.0 0.0 0.0 40.0" Properties=species:S:1:pos:R:3:tags:I:1:forces:R:3 energy=-1207.435284367939 stress="0.0027108588476944424 -1.6028785393501374e-05 4.0630604853939635e-07 -1.6028785393501374e-05 0.0026923102020844315 -3.791971303119866e-07 4.0630604853939635e-07 -3.791971303119866e-07 0.0029895694962539477" pbc="T T F"
C       -0.38235343       0.11678840       9.95137107        2      -0.00010547       0.00139436      -0.00230106
Ti      -0.37409452       1.86470587       8.68584240        0      -0.00335195       0.00001453      -0.00259453
Ti       1.17568895       0.96893805      11.25148115        0      -0.00165487      -0.00104259       0.00059700
O       -0.30893961       1.82634224      12.23159545        3      -0.00176382       0.00104556      -0.89658044
O        1.12604178       0.99772383       7.76470671        1      -0.00208721       0.00102081      -0.00268300
C       -1.90280145       2.74706928      10.03593874        2      -0.00239452       0.00132146       0.00034013
Ti      -1.90761155       4.51599947       8.70502469        0      -0.00089410      -0.00500133      -0.00081037
Ti      -0.40725697       3.65805541      11.26876542        0      -0.00183535      -0.00324141      -0.00223923
O       -1.88863354       4.61399793      12.23159545        3      -0.00338368       0.00137474      -0.73246539
O       -0.39750016       3.61708123       7.77694608        1       0.00248119      -0.00096231       0.00109673
C       -3.41308825       5.37595842       9.95424475        2       0.00452731      -0.00153855       0.00353385
Ti      -3.42760809       7.11501962       8.69465239        0       0.00312142       0.00438871      -0.00349987
Ti      -1.90345855       6.30700275      11.24576232        0       0.00050485      -0.00231092      -0.00001880
O       -3.42361191       7.12737781      12.23159545        3       0.00223565      -0.00123946      -0.24752686
O       -1.90196500       6.24598173       7.76215653        1       0.00172356      -0.00264424       0.00240312
C       -4.93135887       7.99504332       9.95613239        2       0.00287320      -0.00216893      -0.00000908
Ti      -4.93798925       9.73518364       8.69336349        0       0.00321828      -0.00143554      -0.00064887
Ti      -3.42047643       8.86888002      11.28006657        0       0.00023521       0.00060920       0.00135664
O       -4.93328302       9.74099528      12.23159545        3       0.00132906      -0.00080462      -0.21951398
O       -3.41971536       8.86628392       7.76081554        1      -0.00073423       0.00061231       0.00303226
C        2.65380526       0.11531614       9.96582138        2       0.00185718       0.00040997       0.00180201
Ti       2.64759712       1.87997900       8.69333757        0      -0.00082909       0.00061860       0.00062115
Ti       4.15695029       0.99890963      11.27972595        0      -0.00399287       0.00039623       0.00228128
O        2.64418068       1.87265521      12.23159545        3       0.00413011       0.00237434      -0.21936359
O        4.15888095       0.99996822       7.76111394        1       0.00032690      -0.00092001      -0.00138007
C        1.13414473       2.74477379       9.95108804        2       0.00262117      -0.00104427      -0.00097676
Ti       1.13227831       4.49742169       8.67837676        0       0.00152949      -0.00210195       0.00153720
Ti       2.63469919       3.61965142      11.29626863        0      -0.00105808       0.00112509      -0.00244746
O        1.13236020       4.49971863      12.23159545        3       0.00009830       0.00302676      -0.21446182
O        2.64721734       3.62397426       7.76373446        1      -0.00198892      -0.00187620       0.00163366
C       -0.38305318       5.38741013       9.95418539        2       0.00020670       0.00203707       0.00192667
Ti      -0.37892692       7.12090497       8.68350272        0      -0.00306908       0.00204891       0.00187571
Ti       1.13151184       6.24972876      11.28791012        0       0.00180913      -0.00342017      -0.00124013
O       -0.37953779       7.12837591      12.23159545        3       0.00034485      -0.00230432      -0.30166302
O        1.13156478       6.24463510       7.76046133        1      -0.00386500      -0.00018096      -0.00047237
C       -1.89982087       8.01055996       9.96011380        2      -0.00226107      -0.00392865       0.00071217
Ti      -1.90303428       9.74372821       8.66830815        0      -0.00120278      -0.00175441      -0.00104602
Ti      -0.38726790       8.86898184      11.28376894        0      -0.00055821       0.00408587       0.00219494
O       -1.90078896       9.74249798      12.23159545        3      -0.00056143       0.00067970      -0.32305200
O       -0.38759598       8.86986263       7.75471901        1      -0.00298863      -0.00312309       0.00268053
C        5.66042473       0.11201224       9.96009101        2       0.00107770       0.00042703       0.00247414
Ti       5.67207384       1.88095876       8.69490085        0      -0.00158166      -0.00233770      -0.00184957
Ti       7.13544346       0.96684541      11.24646822        0      -0.00534791      -0.00257300      -0.00146920
O        5.66373978       1.87193613      12.23159545        3      -0.00130044       0.00118249      -0.24485808
O        7.18842374       0.99589999       7.76308149        1      -0.00092562       0.00019751      -0.00126339
C        4.15759953       2.74354552       9.95619041        2       0.00194801       0.00246686       0.00492019
Ti       4.16144389       4.49533039       8.70107811        0      -0.00242706       0.00436450      -0.00113221
Ti       5.67755023       3.61207116      11.28968393        0       0.00252311       0.00238489      -0.00170075
O        4.15984773       4.49317455      12.23159545        3       0.00169828       0.00230043      -0.22624318
O        5.67653566       3.62384847       7.76953108        1       0.00072027       0.00173080      -0.00230745
C        2.64316825       5.36907691       9.95910874        2      -0.00130275      -0.00113855       0.00100366
Ti       2.65140039       7.11440353       8.70321844        0       0.00354940      -0.00002090      -0.00064076
Ti       4.16186561       6.24190853      11.28846490        0       0.00173711      -0.00324606      -0.00195300
O        2.64750688       7.11659052      12.23159545        3      -0.00098206       0.00128593      -0.19718910
O        4.16395010       6.24029545       7.76785691        1       0.00089359       0.00286536       0.00303979
C        1.12784905       7.99439988       9.95223884        2      -0.00147369      -0.00069131      -0.00169657
Ti       1.13092145       9.73546783       8.68414502        0      -0.00080772       0.00232648      -0.00066351
Ti       2.64155447       8.86338117      11.28797089        0      -0.00210970      -0.00004106       0.00110185
O        1.12458561       9.73272795      12.23159545        3       0.00107126      -0.00213579      -0.30163377
O        2.64510022       8.86619536       7.76047255        1      -0.00189846      -0.00100008       0.00205949
C        8.69097441       0.11001625       9.95502097        2      -0.00270657      -0.00267530      -0.00124208
Ti       8.68346262       1.86621968       8.70568470        0       0.00291488       0.00327694      -0.00326830
Ti      10.17691241       0.99600822      11.26781215        0       0.00023004      -0.00174970       0.00381821
O        8.60894453       1.80097857      12.23159545        3      -0.00517310       0.00104491      -0.72689451
O       10.21680143       1.00751157       7.77771497        1      -0.00141415       0.00004628      -0.00276558
C        7.18585256       2.73888585       9.95519827        2      -0.00101881       0.00220653      -0.00133491
Ti       7.19128233       4.49259678       8.71412208        0       0.00673646      -0.00037525      -0.00122643
Ti       8.76875347       3.58303016      11.43167233        0       0.00347441      -0.00080047      -0.00108460
O        7.20299687       4.48624442      12.23159545        3       0.00158450       0.00029000      -0.12158069
O        8.71327177       3.61488114       7.79932559        1       0.00046665      -0.00224654       0.00507631
C        5.68070944       5.36495653       9.97610107        2      -0.00213492       0.00064536      -0.00161955
Ti       5.67365025       7.11603686       8.70051911        0      -0.00246841      -0.00124229      -0.00011858
Ti       7.19657179       6.24409333      11.28969904        0       0.00230214      -0.00005236      -0.00268592
O        5.67515002       7.11781697      12.23159545        3      -0.00124613      -0.00044316      -0.22510707
O        7.18562925       6.23879184       7.76906246        1       0.00162454       0.00316614       0.00061827
C        4.15864526       7.99383757       9.95890363        2       0.00128312       0.00185427       0.00338819
Ti       4.15835107       9.73892610       8.67854815        0       0.00086652       0.00081377      -0.00125017
Ti       5.66913890       8.87534104      11.29569159        0       0.00047270       0.00420972      -0.00002917
O        4.15638632       9.73762714      12.23159545        3       0.00069410      -0.00233568      -0.21616871
O        5.67149091       8.86344952       7.76358351        1       0.00393216      -0.00051016       0.00080021
C        0.63390260      -0.11653634      15.28987478       10      -0.00136248      -0.00217942       0.06537486
C        1.84047272       0.58805108      15.29826301       10       0.00171395      -0.00133696       0.07993993
C       -0.55469983       1.97071527      15.26550411       10      -0.00046547       0.00090040       0.64062552
C        0.63370892       2.68513147      15.27314285       10       0.00018585       0.00134451       0.17209752
C       -1.79668471       4.11875280      15.26549856       10      -0.00062591      -0.00045670       0.30795765
C       -0.58666319       4.79414930      15.27314029       10       0.00016415       0.00092189       0.14415330
C       -3.00945093       6.19456710      15.28987423       10       0.00006475       0.00043067       0.05813370
C       -1.79662903       6.88889562      15.29826281       10      -0.00124522       0.00201533       0.08267210
C       -4.22146439       8.28585103      15.28798184       10      -0.00387633       0.00048424       0.07273747
C       -3.00945181       8.98598524      15.29927150       10       0.00107423       0.00131467       0.06726748
C        3.05203413      -0.11141214      15.30029652       10       0.00015717      -0.00223089       0.05296764
C        4.26266110       0.58926314      15.29927141       10      -0.00151300      -0.00058318       0.06719392
C        1.84730945       1.98527379      15.28987499       10       0.00011967      -0.00129946       0.06504793
C        3.05336897       2.68909319      15.28081486       10       0.00030061      -0.00005250       0.06272872
C        0.62902340       4.09039554      15.24701497       10       0.00083342       0.00156812       0.00867140
C        1.83809604       4.78675748      15.25868492       10       0.00074389       0.00122724       0.05836287
C       -0.58286715       6.19495764      15.28987423       10      -0.00276696       0.00089881       0.07033163
C        0.62928417       6.88780314      15.28081496       10      -0.00160710      -0.00064712       0.06520694
C       -1.79736118       8.28837082      15.30029673       10       0.00049117       0.00074025       0.07401345
C       -0.58521689       8.98595464      15.29927150       10       0.00191810      -0.00091820       0.08050377
C        5.47284949      -0.11166333      15.30029652       10      -0.00228239      -0.00256795       0.07443452
C        6.68509974       0.58744960      15.29826301       10      -0.00255263      -0.00094574       0.08244917
C        4.26279184       1.98904383      15.28798171       10       0.00122314      -0.00022054       0.07177703
C        5.47294501       2.68818111      15.28081486       10       0.00241317      -0.00157238       0.05941985
C        3.05067246       4.08739206      15.26693136       10      -0.00002770       0.00052903       0.12025599
C        4.26301530       4.78809236      15.26414350       10       0.00007159      -0.00028914       0.05090676
C        1.83975501       6.18649155      15.26693126       10      -0.00114687       0.00004526       0.11002993
C        3.05218875       6.88586890      15.26414339       10       0.00027788      -0.00073734       0.03738361
C        0.62756629       8.28565218      15.28798184       10       0.00294094      -0.00085821       0.04731428
C        1.83890862       8.98318312      15.28081471       10       0.00221064       0.00167459       0.06502566
C        7.89286878      -0.11683300      15.28987478       10      -0.00079847       0.00066457       0.07055580
C        9.10415191       0.58671442      15.27314266       10      -0.00031187       0.00131335       0.14398217
C        6.67990140       1.98493869      15.28987499       10       0.00262704      -0.00082959       0.05763893
C        7.89540194       2.68367657      15.27314285       10       0.00141467       0.00128243       0.12244952
C        5.47471740       4.08755176      15.26693136       10      -0.00127069      -0.00137780       0.14085999
C        6.68827398       4.78664705      15.25868492       10      -0.00213083       0.00017760       0.05111272
C        4.26338320       6.18661797      15.26106550       10       0.00167436      -0.00029582       0.14268271
C        5.47439331       6.88619202      15.26414339       10       0.00162314       0.00023687       0.05107528
C        3.05154812       8.28554879      15.26693109       10       0.00108851      -0.00072433       0.11064271
C        4.26304107       8.98668039      15.25868451       10      -0.00115030       0.00147905       0.05821101
C       10.32147325      -0.11430551      15.24701492       10      -0.00071192      -0.00004442       0.00884236
C       11.54074582       0.58429833      15.27314266       10       0.00397951       0.00112445       0.17267483
C        9.08407094       1.97237448      15.26550411       10       0.00052039       0.00008287       0.30935587
C       10.32316892       2.68794284      15.02114485       10      -0.00002469      -0.00184786       0.39037862
C        7.89704204       4.08870362      15.24701497       10      -0.00192438       0.00084583       0.05434091
C        9.11299450       4.79254735      15.27314029       10       0.00156489      -0.00136665       0.12240878
C        6.68696328       6.18716094      15.26693126       10       0.00138924       0.00051856       0.14099995
C        7.89805748       6.88825193      15.28081496       10       0.00224165      -0.00018352       0.05920138
C        5.47516612       8.28643367      15.26693109       10      -0.00271643      -0.00094108       0.12058440
C        6.68749683       8.98324348      15.28081471       10      -0.00021462       0.00042221       0.06249734
O       10.29643834       2.70270538      13.61143488       11      -0.00264669       0.00312869       0.00185302
H       11.19242670       2.18395333      13.21454302       12      -0.00172979       0.00012414       0.00271329
