130
Lattice="12.12 0.0 0.0 -6.06 10.496227893867395 0.0 0.0 0.0 40.0" Properties=species:S:1:pos:R:3:tags:I:1:forces:R:3 energy=-1200.296910316187 stress="0.00284917979044216 4.796273697421108e-08 5.274128089829278e-08 4.796273697421108e-08 0.0028490821047844677 2.1173891395107238e-07 5.274128089829278e-08 2.1173891395107238e-07 0.0019691580915844964" pbc="T T F"
C        0.00000309       0.00000306      10.00080600        2       0.00000016       0.00002407       0.00047634
Ti       0.00000225       1.74936575       8.71000932        0      -0.00000211       0.00002665       0.00073704
Ti       1.51498417       0.87465707      11.29077738        0       0.00002717       0.00004589       0.00045804
O        0.00004381       1.74918415      12.23008024        3       0.00000284      -0.00004322       0.06557692
O        1.51502200       0.87470447       7.77046205        1       0.00006086       0.00003655       0.00086260
C       -1.51497294       2.62400844      10.00087830        2       0.00002337      -0.00001629       0.00064961
Ti      -1.51499910       4.37343187       8.71014624        0       0.00001286       0.00002129       0.00105185
Ti       0.00004379       3.49863974      11.29080732        0       0.00003219      -0.00004953       0.00059112
O       -1.51489947       4.37293317      12.23008024        3       0.00002111      -0.00001182       0.08897756
O       -0.00000584       3.49882588       7.77055138        1      -0.00000687       0.00011573       0.00108284
C       -3.02999986       5.24812533      10.00104740        2      -0.00000654       0.00002026       0.00081758
Ti      -3.03000407       6.99748736       8.71014095        0       0.00002628       0.00000463       0.00103993
Ti      -1.51501750       6.12281353      11.29092968        0      -0.00004884      -0.00002475       0.00072508
O       -3.03042244       6.99799413      12.23008024        3       0.00001939       0.00001902       0.08818606
O       -1.51496100       6.12282355       7.77061285        1       0.00004551       0.00002209       0.00128634
C       -4.54502885       7.87221180      10.00085211        2       0.00000420       0.00006002       0.00067898
Ti      -4.54499710       9.62154332       8.71000618        0       0.00002067       0.00000467       0.00072236
Ti      -3.03004382       8.74696443      11.29079977        0      -0.00002479       0.00009453       0.00058819
O       -4.54504883       9.62160105      12.23008024        3      -0.00005929       0.00007087       0.06893923
O       -3.02992435       8.74680618       7.77054467        1       0.00007859      -0.00004529       0.00105127
C        3.02996746       0.00003154      10.00081759        2       0.00001240       0.00002990       0.00063580
Ti       3.02999985       1.74936829       8.71005763        0       0.00002384       0.00002951       0.00079596
Ti       4.54499128       0.87471463      11.29081975        0       0.00002684       0.00011040       0.00057997
O        3.03002686       1.74929977      12.23008024        3      -0.00006319       0.00000918       0.07687569
O        4.54505187       0.87466050       7.77054766        1       0.00005134      -0.00001171       0.00107240
C        1.51499197       2.62401441      10.00084989        2       0.00002154       0.00000029       0.00059803
Ti       1.51500046       4.37343769       8.71013329        0       0.00000437       0.00003443       0.00100588
Ti       3.03000616       3.49870168      11.29082473        0       0.00005113      -0.00000457       0.00059223
O        1.51512347       4.37301194      12.23008024        3      -0.00000655      -0.00003804       0.08779743
O        3.03000148       3.49880274       7.77055084        1       0.00000923       0.00008845       0.00110226
C        0.00000453       5.24812920      10.00113697        2       0.00000362      -0.00000997       0.00081360
Ti       0.00000033       6.99748589       8.71018290        0       0.00000069       0.00000184       0.00122477
Ti       1.51501704       6.12283241      11.29093227        0       0.00001980      -0.00002450       0.00074077
O       -0.00013857       6.99727247      12.23008024        3      -0.00004594       0.00007145       0.09921525
O        1.51495853       6.12283183       7.77060673        1      -0.00005241       0.00004216       0.00126202
C       -1.51496425       7.87216644      10.00115003        2      -0.00003068       0.00003932       0.00080310
Ti      -1.51499281       9.62154310       8.71012532        0       0.00003246       0.00000601       0.00098541
Ti       0.00001213       8.74684733      11.29094128        0       0.00000090       0.00009107       0.00072465
O       -1.51535446       9.62193498      12.23008024        3       0.00000566       0.00005630       0.08768243
O        0.00000522       8.74680291       7.77060466        1       0.00001159      -0.00006601       0.00124272
C        6.06001118      -0.00003211      10.00102478        2      -0.00000574       0.00007252       0.00074263
Ti       6.05999554       1.74937804       8.71011031        0       0.00001806       0.00003572       0.00095308
Ti       7.57497601       0.87469524      11.29084397        0       0.00004316       0.00006621       0.00059772
O        6.05983589       1.74918692      12.23008024        3       0.00009447       0.00011227       0.08260736
O        7.57496448       0.87467052       7.77055991        1      -0.00002297      -0.00002038       0.00109886
C        4.54504661       2.62410017      10.00094626        2      -0.00001393       0.00001533       0.00070003
Ti       4.54499807       4.37342454       8.71010880        0       0.00000647       0.00002407       0.00098760
Ti       6.06001232       3.49877658      11.29090424        0       0.00003716       0.00006961       0.00064576
O        4.54460230       4.37342019      12.23008024        3       0.00008495       0.00006939       0.08551985
O        6.06001430       3.49875536       7.77056644        1       0.00000718       0.00005139       0.00118189
C        3.02999493       5.24814529      10.00102400        2       0.00000405       0.00000329       0.00075634
Ti       3.03000830       6.99748588       8.71013254        0      -0.00002113      -0.00000292       0.00101506
Ti       4.54500085       6.12282416      11.29085387        0      -0.00000089       0.00007824       0.00062615
O        3.03046361       6.99791552      12.23008024        3      -0.00006570       0.00001044       0.08701228
O        4.54497212       6.12278016       7.77056051        1      -0.00002916       0.00000031       0.00112962
C        1.51495523       7.87215708      10.00116770        2       0.00001195       0.00002262       0.00080300
Ti       1.51499881       9.62154841       8.71012968        0      -0.00002240       0.00000364       0.00100573
Ti       3.03004977       8.74692092      11.29080832        0       0.00002653       0.00005677       0.00058242
O        1.51548288       9.62185823      12.23008024        3      -0.00002932       0.00004064       0.08808907
O        3.02992254       8.74681269       7.77054639        1      -0.00009136      -0.00004012       0.00105135
C        9.09002239       0.00003364      10.00083571        2       0.00002463       0.00000182       0.00064771
Ti       9.09000608       1.74935905       8.71008461        0      -0.00001085       0.00002176       0.00086674
Ti      10.60504721       0.87462890      11.29078009        0       0.00000908       0.00002077       0.00048369
O        9.09005942       1.74912637      12.23008024        3       0.00004763       0.00001986       0.07961032
O       10.60496954       0.87470488       7.77047482        1      -0.00004264       0.00004060       0.00087943
C        7.57497152       2.62409196      10.00102643        2       0.00005411       0.00002501       0.00068205
Ti       7.57500351       4.37342930       8.71012084        0       0.00002148       0.00002063       0.00103789
Ti       9.09002015       3.49868587      11.29085702        0       0.00002533      -0.00002286       0.00062084
O        7.57544591       4.37360031      12.23008024        3      -0.00001705       0.00002746       0.08820794
O        9.08999188       3.49879069       7.77057370        1       0.00002561       0.00007916       0.00115600
C        6.06000714       5.24809943      10.00106234        2       0.00001553       0.00008727       0.00070856
Ti       6.05999662       6.99750694       8.71008515        0       0.00000175      -0.00000923       0.00087949
Ti       7.57497821       6.12285840      11.29086209        0      -0.00003035       0.00008225       0.00064423
O        6.05989929       6.99780358      12.23008024        3      -0.00004431       0.00010470       0.08076352
O        7.57503207       6.12276925       7.77057030        1       0.00005111       0.00000791       0.00115985
C        4.54503373       7.87218824      10.00084053        2      -0.00001285       0.00005610       0.00063316
Ti       4.54499175       9.62153776       8.71001983        0      -0.00002511      -0.00000187       0.00071986
Ti       6.05999379       8.74694450      11.29077742        0      -0.00000816       0.00005778       0.00046349
O        4.54500316       9.62152338      12.23008024        3       0.00003502       0.00005760       0.07144911
O        6.05999562       8.74682571       7.77046948        1       0.00001512      -0.00003870       0.00087891
C        0.04502515       0.06751642      17.58797498       10       0.00035463       0.00021246      -0.02552132
C        1.25711739       0.76732904      17.58797498       10      -0.00319495      -0.00136443      -0.02759629
C       -1.16704959       2.16684408      17.58797498       10       0.00013534       0.00196021      -0.03036329
C        0.04497508       2.86664623      17.58797498       10      -0.00011078      -0.00124771      -0.03277133
C       -2.37902111       4.26605950      17.58797498       10      -0.00103644       0.00049748      -0.02728029
C       -1.16699665       4.96585721      17.58797498       10       0.00083394      -0.00054620      -0.02821548
C       -3.59100800       6.36519866      17.58797498       10      -0.00099608       0.00151859      -0.02971644
C       -2.37897616       7.06500988      17.58797498       10       0.00081285      -0.00199058      -0.02753004
C       -4.80299373       8.46443159      17.58797498       10       0.00118365       0.00066118      -0.03058527
C       -3.59094671       9.16421272      17.58797498       10      -0.00076348      -0.00045836      -0.03457464
C        2.46911466       0.06752380      17.58797498       10       0.00150218      -0.00001750      -0.03076647
C        3.68110396       0.76730794      17.58797498       10      -0.00224202      -0.00045336      -0.02186409
C        1.25701045       2.16686543      17.58797498       10       0.00201113       0.00153903      -0.03025777
C        2.46904277       2.86659609      17.58797498       10      -0.00213157       0.00008497      -0.02232619
C        0.04498944       4.26606202      17.58797498       10      -0.00088757       0.00013453      -0.02508736
C        1.25696784       4.96583530      17.58797498       10      -0.00101019       0.00149217      -0.02741014
C       -1.16702079       6.36526463      17.58797498       10      -0.00047106       0.00108204      -0.02648249
C        0.04498773       7.06503056      17.58797498       10       0.00111793      -0.00007593      -0.02213869
C       -2.37905227       8.46448394      17.58797498       10       0.00079298       0.00077125      -0.02729229
C       -1.16701452       9.16419784      17.58797498       10       0.00040880       0.00149090      -0.02538085
C        4.89301633       0.06754282      17.58797498       10       0.00001088      -0.00132363      -0.02626686
C        6.10500221       0.76718399      17.58797498       10       0.00075831      -0.00022550      -0.03574360
C        3.68105204       2.16683853      17.58797498       10       0.00140550      -0.00000342      -0.03460000
C        4.89297500       2.86650443      17.58797498       10       0.00068574       0.00075637      -0.02993139
C        2.46897571       4.26607726      17.58797498       10       0.00095664      -0.00238506      -0.02495054
C        3.68090495       4.96577558      17.58797498       10      -0.00095904       0.00230595      -0.03380183
C        1.25702218       6.36528455      17.58797498       10      -0.00069541      -0.00083708      -0.02605902
C        2.46899579       7.06500636      17.58797498       10      -0.00141418      -0.00008639      -0.02512169
C        0.04498689       8.46454083      17.58797498       10      -0.00076124       0.00012253      -0.02549493
C        1.25696643       9.16426492      17.58797498       10      -0.00000879       0.00119792      -0.02408040
C        7.31703429       0.06761858      17.58797498       10      -0.00044053      -0.00161626      -0.03018446
C        8.52900821       0.76732676      17.58797498       10      -0.00080549      -0.00084257      -0.02041613
C        6.10500681       2.16674087      17.58797498       10      -0.00112393      -0.00003871      -0.02099136
C        7.31699983       2.86651939      17.58797498       10       0.00047493      -0.00114575      -0.02793686
C        4.89293706       4.26604064      17.58797498       10       0.00100379      -0.00158240      -0.02107770
C        6.10496489       4.96576630      17.58797498       10       0.00086102      -0.00022352      -0.02660577
C        3.68102562       6.36522235      17.58797498       10       0.00209311      -0.00016102      -0.03170217
C        4.89301066       7.06498529      17.58797498       10      -0.00203400      -0.00163708      -0.02135358
C        2.46895794       8.46451493      17.58797498       10       0.00223086       0.00037899      -0.03015705
C        3.68088429       9.16420281      17.58797498       10      -0.00149174      -0.00005928      -0.03695202
C        9.74092632       0.06751048      17.58797498       10       0.00071457       0.00038122      -0.02947340
C       10.95297233       0.76730814      17.58797498       10      -0.00120799      -0.00074117      -0.02917102
C        8.52896921       2.16683325      17.58797498       10      -0.00083530       0.00191433      -0.03083603
C        9.74097019       2.86660560      17.58797498       10       0.00098363      -0.00157952      -0.02131553
C        7.31700907       4.26602001      17.58797498       10      -0.00086613       0.00046876      -0.02154305
C        8.52903899       4.96579406      17.58797498       10       0.00099088      -0.00055013      -0.03147389
C        6.10502165       6.36519294      17.58797498       10       0.00007699       0.00114650      -0.02773928
C        7.31702879       7.06500139      17.58797498       10      -0.00016837      -0.00204016      -0.02187937
C        4.89287050       8.46441581      17.58797498       10       0.00316495       0.00127081      -0.02912304
C        6.10495364       9.16417237      17.58797498       10      -0.00037885      -0.00029344      -0.03070529
