132
Lattice="12.12 0.0 0.0 -6.06 10.496227893867395 0.0 0.0 0.0 40.0" Properties=species:S:1:pos:R:3:tags:I:1:forces:R:3 energy=-1206.6935032626773 stress="0.002682596447529147 -2.0597769505674427e-05 -2.3776552034811333e-07 -2.0597769505674427e-05 0.002640720871332696 1.2531926837723363e-05 -2.3776552034811333e-07 1.2531926837723363e-05 0.0030668108048774166" pbc="T T F"
C       -0.35233619       0.02264241       9.95503143        2       0.00174396      -0.00042460      -0.00466491
Ti      -0.34212440       1.77073707       8.69914396        0       0.00302279       0.00027501      -0.00079126
Ti       1.20983550       0.87204649      11.24633521        0      -0.00052032       0.00136030       0.00512524
O       -0.28463112       1.70881825      12.23159545        3      -0.00179336      -0.00145490      -0.90017053
O        1.15347018       0.90835863       7.76772843        1       0.00106161       0.00170399       0.00330973
C       -1.87481543       2.66045982      10.06209231        2      -0.00428896       0.00254144      -0.00323556
Ti      -1.87521024       4.42489687       8.71715008        0      -0.00092686       0.00345902      -0.00048387
Ti      -0.38496583       3.58450459      11.27304384        0       0.00179033      -0.00404400      -0.00046262
O       -1.85094519       4.60541519      12.23159545        3      -0.00244193      -0.00019477      -0.75193735
O       -0.36833321       3.52214353       7.78612908        1      -0.00093961       0.00095955       0.00038566
C       -3.38199555       5.27832936       9.96589738        2       0.00214884       0.00225990      -0.00003021
Ti      -3.39612395       7.02290664       8.70029463        0      -0.00038292       0.00013147      -0.00277570
Ti      -1.87143888       6.24381288      11.23604963        0       0.00475176       0.00370512       0.00120258
O       -3.39485219       7.04460721      12.23159545        3       0.00131315       0.00101282      -0.20294435
O       -1.87267057       6.14888917       7.76743659        1       0.00389751       0.00480680       0.00340749
C       -4.90176413       7.90271191       9.95706036        2       0.00038278       0.00188934      -0.00561827
Ti      -4.90764111       9.64145055       8.69287467        0       0.00020926      -0.00138905      -0.00075543
Ti      -3.39324476       8.78121421      11.27868366        0       0.00035068      -0.00161406      -0.00173624
O       -4.90251133       9.64351469      12.23159545        3      -0.00331196      -0.00232825      -0.19409958
O       -3.39096385       8.77110082       7.76067984        1       0.00075410      -0.00060338       0.00025542
C        2.68390471       0.02256767       9.96622896        2       0.00204422      -0.00077246      -0.00353952
Ti       2.67799764       1.78559646       8.69869510        0       0.00021358       0.00100685       0.00011739
Ti       4.18572262       0.90757973      11.27740371        0      -0.00214191       0.00341585      -0.00095101
O        2.67487377       1.77678936      12.23159545        3       0.00495812       0.00350020      -0.17022391
O        4.19127727       0.91271582       7.76357106        1      -0.00005970       0.00433519       0.00174051
C        1.15994335       2.65073238       9.96530677        2       0.00140625       0.00129164      -0.00168825
Ti       1.16236582       4.40435921       8.68520721        0      -0.00099986       0.00235184      -0.00048198
Ti       2.66411740       3.52461713      11.29998900        0      -0.00040987       0.00451043      -0.00134870
O        1.16936415       4.41595153      12.23159545        3      -0.00283473       0.00287245      -0.13793149
O        2.67785712       3.52886929       7.76962560        1      -0.00280907       0.00103455       0.00397119
C       -0.34854995       5.29794918       9.95904283        2       0.00185531       0.00224496       0.00234064
Ti      -0.34671690       7.02898620       8.68334067        0       0.00233193       0.00273815      -0.00140221
Ti       1.16273108       6.15674952      11.29078363        0       0.00040077      -0.00012620       0.00262925
O       -0.34112198       7.04728392      12.23159545        3       0.00073185      -0.00279343      -0.27600201
O        1.16201305       6.14810337       7.76240370        1       0.00288746       0.00078800       0.00235059
C       -1.86897308       7.92681578       9.95631413        2      -0.00120953       0.00175143       0.00169432
Ti      -1.87263742       9.65150463       8.66612610        0       0.00385369       0.00252423      -0.00397094
Ti      -0.35601350       8.78260655      11.28471644        0       0.00343748      -0.00465671       0.00168142
O       -1.87015465       9.64946533      12.23159545        3       0.00055438       0.00211327      -0.29264988
O       -0.35746313       8.77690678       7.75173921        1       0.00071024      -0.00141147       0.00135241
C        5.68967043       0.01728316       9.95995287        2      -0.00041854       0.00129141      -0.00360741
Ti       5.70391699       1.78548943       8.70707523        0      -0.00208617       0.00081905      -0.00525799
Ti       7.15784233       0.86669518      11.24952220        0       0.00046276      -0.00142151      -0.00469292
O        5.69377958       1.77403994      12.23159545        3      -0.00066437       0.00307086      -0.16968252
O        7.22121234       0.90667086       7.76945520        1      -0.00122706       0.00017456       0.00272254
C        4.18839229       2.64960070       9.96521875        2       0.00148281       0.00023521      -0.00802787
Ti       4.19306227       4.39846587       8.70432203        0      -0.00190706       0.00188610       0.00218402
Ti       5.71596660       3.51644898      11.28761756        0      -0.00081820      -0.00164795      -0.00433076
O        4.19168380       4.39771285      12.23159545        3       0.00134728       0.00412873      -0.19966926
O        5.71116304       3.52807506       7.77713272        1      -0.00173768       0.00122205       0.00001616
C        2.67590167       5.27290011       9.96271849        2       0.00197446       0.00226249      -0.00190105
Ti       2.68432544       7.01834692       8.70619681        0      -0.00143904       0.00167823      -0.00287824
Ti       4.19705300       6.14238932      11.28987225        0       0.00175028       0.00478400      -0.00194043
O        2.68054273       7.02088431      12.23159545        3       0.00342710       0.00212901      -0.18398921
O        4.19829856       6.14201138       7.77006647        1      -0.00513330       0.00413075       0.00347763
C        1.16056897       7.90152710       9.94882778        2       0.00276183       0.00333724      -0.00287369
Ti       1.16161956       9.63920412       8.68423923        0       0.00060416       0.00332098      -0.00216844
Ti       2.67591988       8.76324589      11.28561892        0      -0.00021783       0.00489565      -0.00125525
O        1.15682334       9.63158185      12.23159545        3       0.00187026      -0.00251529      -0.26226643
O        2.67711887       8.77034958       7.75918787        1       0.00192573       0.00113433       0.00168481
C        8.72195158       0.01011469       9.95475818        2      -0.00152036      -0.00178986      -0.00532180
Ti       8.71344422       1.77026976       8.71482695        0      -0.00073729       0.00284671      -0.00136000
Ti      10.19711395       0.88821899      11.24865621        0      -0.00414154       0.00168855      -0.00066562
O        8.62856645       1.66926295      12.23159545        3       0.00050075       0.00230961      -0.66284403
O       10.24804120       0.91829798       7.78142126        1      -0.00034879       0.00000288       0.00164652
C        7.22561802       2.64705604       9.97190866        2      -0.00199955       0.00047887      -0.00645441
Ti       7.22453183       4.39775538       8.72151145        0      -0.00060918       0.00249876      -0.00049372
Ti       8.82591248       3.48852148      11.48228389        0       0.00263485      -0.00459435       0.00119156
O        7.24438859       4.39096348      12.23159545        3      -0.00272936       0.00132612      -0.05078705
O        8.74688071       3.51934745       7.81024117        1       0.00454778       0.00248461       0.00298857
C        5.71435122       5.26809479       9.98574323        2      -0.00029350       0.00489578       0.00242726
Ti       5.70572119       7.02152955       8.70333281        0      -0.00009357       0.00257654      -0.00209148
Ti       7.23393848       6.14817081      11.28950240        0      -0.00218525       0.00462480      -0.00255315
O        5.70750742       7.02387789      12.23159545        3       0.00114338      -0.00026739      -0.21181887
O        7.21980606       6.14126483       7.77523220        1      -0.00147278       0.00576901      -0.00158615
C        4.19174786       7.89692787       9.95926150        2      -0.00055443      -0.00092250      -0.00085175
Ti       4.18808158       9.64557963       8.67688837        0       0.00006464       0.00345949      -0.00016676
Ti       5.69890726       8.77775628      11.29703437        0      -0.00363965       0.00101422      -0.00129648
O        4.18592606       9.63238926      12.23159545        3      -0.00330152       0.00012572      -0.23396938
O        5.70254823       8.76788623       7.76389769        1      -0.00009325       0.00163357       0.00323120
C        0.58332086       0.03376747      15.14776952       10      -0.00646491      -0.00703891       0.10460563
C        1.79116004       0.73848776      15.15615775       10       0.00335590      -0.00256530       0.08537361
C       -0.60461518       2.12415411      15.12339885       10      -0.00237357      -0.00208989       0.87408885
C        0.58465161       2.83647273      15.13103759       10      -0.00112531      -0.00047701       0.15156217
C       -1.84871398       4.26422245      15.12339330       10      -0.00501330      -0.00516530      -0.01511308
C       -0.63856830       4.94187872      15.13103503       10      -0.00401667      -0.00419752       0.11946191
C       -3.06024205       6.34350603      15.14776897       10      -0.00372235      -0.00323439       0.01367843
C       -1.84785173       7.03853889      15.15615755       10       0.00080273      -0.00397704       0.06927341
C       -4.27207700       8.43458946      15.14587658       10      -0.00573928       0.00190513       0.08121166
C       -3.05989325       9.13577315      15.15716624       10       0.00424664       0.00351352       0.08915202
C        3.00205759       0.03856232      15.15819126       10       0.00171406      -0.00642659       0.04029129
C        4.21245606       0.73966764      15.15716615       10      -0.00035375      -0.00436582       0.08671641
C        1.79725696       2.13640516      15.14776973       10      -0.00028581      -0.00213548       0.06369619
C        3.00343152       2.84016930      15.13870960       10      -0.00140358       0.00071428       0.07438046
C        0.57795056       4.24191913      15.10490971       10      -0.00342473       0.00139321      -0.00454396
C        1.78687183       4.93828621      15.11657966       10      -0.00171567       0.00088118       0.04480542
C       -0.63495828       6.34305658      15.14776897       10       0.00000553      -0.00583594       0.03760693
C        0.57714992       7.03782600      15.13870970       10       0.00138477      -0.00527499       0.05215009
C       -1.84813912       8.43779930      15.15819147       10      -0.00047838      -0.00351796       0.03531144
C       -0.63610973       9.13579193      15.15716624       10      -0.00124163       0.00111780       0.09992357
C        5.42221806       0.03837908      15.15819126       10       0.00267128      -0.00207974       0.03985428
C        6.63389808       0.73810520      15.15615775       10       0.00233893       0.00219289       0.07169350
C        4.21293016       2.14025398      15.14587645       10      -0.00286690      -0.00411221       0.03580867
C        5.42248449       2.83960215      15.13870960       10      -0.00280330      -0.00248240       0.06936558
C        2.99964782       4.23994660      15.12482610       10      -0.00029503       0.00260890       0.11054014
C        4.21206267       4.93984150      15.12203824       10       0.00111768      -0.00001283       0.03046103
C        1.78834800       6.33781636      15.12482600       10       0.00225884      -0.00129362       0.10725426
C        3.00107930       7.03715233      15.12203813       10      -0.00004755      -0.00225483       0.02429280
C        0.57677254       8.43488146      15.14587658       10      -0.00045195      -0.00408835       0.07588597
C        1.78732120       9.13391608      15.13870945       10       0.00087300      -0.00084780       0.06250204
C        7.84269359       0.03393930      15.14776952       10       0.00223554      -0.00145253       0.09067062
C        9.05285954       0.73754655      15.13103740       10      -0.00147499       0.00585956       0.11598290
C        6.62921040       2.13618958      15.14776973       10       0.00141501       0.00170356       0.02901547
C        7.84325855       2.83475698      15.13103759       10       0.00262290      -0.00161434       0.13482593
C        5.42414087       4.24014523      15.12482610       10       0.00233767      -0.00168812       0.11516224
C        6.63739129       4.93807430      15.11657966       10       0.00585128      -0.00504604       0.03964581
C        4.21234900       6.33845391      15.11896024       10      -0.00275305      -0.00175208       0.16008646
C        5.42354090       7.03732345      15.12203813       10      -0.00384268      -0.00358205       0.02820096
C        3.00034865       8.43625707      15.12482583       10       0.00188432      -0.00356803       0.13857521
C        4.21220750       9.13727017      15.11657925       10      -0.00125116       0.00042319       0.04576063
C       10.27071539       0.03618093      15.10490966       10      -0.00790201      -0.00521625       0.05036943
C       11.49141091       0.73459970      15.13103740       10       0.00374496      -0.00298765       0.22308057
C        9.03238451       2.12451655      15.12339885       10       0.00164909       0.00278024       0.23827479
C       10.27066992       2.83599682      14.87903959       10       0.00019599      -0.00073664       0.25121877
C        7.84583585       4.24031773      15.10490971       10       0.00425210      -0.00671035       0.05040249
C        9.06204669       4.94169009      15.13103503       10       0.00382967      -0.00734335       0.12334631
C        6.63623450       6.33789360      15.12482600       10      -0.00170819      -0.00282110       0.12342069
C        7.84778274       7.03782204      15.13870970       10       0.00072450      -0.00069260       0.04593917
C        5.42419300       8.43686849      15.12482583       10      -0.00295563      -0.00498155       0.14427218
C        6.63743735       9.13316283      15.13870945       10       0.00415598       0.00053775       0.05943746
O       10.28541233       2.73172664      13.45942702       11       0.00193968      -0.00565786       0.00421929
H       11.21885462       2.09113753      13.10088000       12      -0.00076696      -0.00015435       0.00036562
