131
Lattice="12.12 0.0 0.0 -6.06 10.496227893867395 0.0 0.0 0.0 40.0" Properties=species:S:1:pos:R:3:tags:I:1:forces:R:3 energy=-1205.3315264777343 stress="0.002912311754266958 1.7465042185507665e-07 6.182230414137556e-07 1.7465042185507665e-07 0.0029110165149837585 5.247954224255347e-08 6.182230414137556e-07 5.247954224255347e-08 0.002271148511426089" pbc="T T F"
C       -0.00055425       0.00033927      10.00575800        2       0.00035745      -0.00010295      -0.00082016
Ti       0.00038458       1.74914198       8.71383922        0       0.00030788       0.00023860       0.00046022
Ti       1.51555308       0.87609307      11.29656237        0       0.00010843      -0.00087976       0.00070613
O       -0.00177700       1.75174545      12.23008024        3       0.00035398       0.00051616       0.12010591
O        1.51623203       0.87209683       7.77871728        1      -0.00049476       0.00123038      -0.00070565
C       -1.51504579       2.62390803      10.00337147        2       0.00014458       0.00013469      -0.00000498
Ti      -1.51515214       4.37440606       8.71542510        0       0.00020979       0.00019997       0.00077016
Ti       0.00062789       3.49921549      11.29442801        0       0.00040353       0.00022507      -0.00057969
O       -1.51442527       4.36881202      12.23008024        3       0.00023722       0.00005049       0.12905281
O       -0.00074675       3.49883623       7.77481712        1       0.00027452      -0.00002994       0.00070962
C       -3.02989371       5.24712698      10.00765604        2       0.00016123       0.00041420      -0.00110427
Ti      -3.03031143       6.99860388       8.72617645        0       0.00016825      -0.00009552      -0.00368315
Ti      -1.51388313       6.12352070      11.30645205        0      -0.00046367       0.00071436       0.00168416
O       -3.03286766       6.98828077      12.23008024        3      -0.00008415      -0.00013305       0.07621529
O       -1.51652104       6.12569838       7.78143661        1       0.00079166      -0.00108975      -0.00100618
C       -4.54489101       7.87230614      10.01466852        2       0.00083210       0.00040567      -0.00287219
Ti      -4.54373635       9.62078723       8.72379843        0       0.00013463      -0.00000602      -0.00338234
Ti      -3.02697386       8.74541654      11.34184439        0       0.00030533      -0.00010632      -0.00266157
O       -4.55330626       9.62581985      12.23008024        3      -0.00012706       0.00026804       0.13086994
O       -3.02909447       8.74655170       7.78725629        1      -0.00011710       0.00002149      -0.00528740
C        3.02990015      -0.00008737      10.01513962        2       0.00015871      -0.00077583      -0.00303321
Ti       3.03016778       1.74986948       8.71580688        0       0.00016686      -0.00057339       0.00081782
Ti       4.54493564       0.87607633      11.30020487        0       0.00014282      -0.00129843       0.00096572
O        3.02937230       1.75369541      12.23008024        3       0.00021046      -0.00061279       0.11425981
O        4.54399194       0.87118950       7.78010054        1       0.00049841       0.00131707      -0.00092705
C        1.51486003       2.62475962      10.00377810        2       0.00069091      -0.00004291       0.00001370
Ti       1.51477288       4.37336671       8.71352497        0       0.00017565       0.00026144      -0.00074498
Ti       3.03031620       3.49980390      11.29399276        0       0.00029563      -0.00027855      -0.00025641
O        1.51542644       4.37305627      12.23008024        3       0.00014116      -0.00007684       0.10411134
O        3.02966780       3.49680321       7.77454013        1       0.00002989       0.00084833       0.00044286
C        0.00051771       5.24744039      10.00543995        2       0.00021311       0.00051891      -0.00028544
Ti       0.00035199       6.99738180       8.71861973        0      -0.00041394       0.00027453       0.00069739
Ti       1.51696452       6.12166810      11.29304936        0       0.00044254      -0.00015324      -0.00048897
O        0.00522202       6.99395489      12.23008024        3       0.00022572      -0.00008554       0.09368776
O        1.51236672       6.12433649       7.77574522        1       0.00096256      -0.00050340       0.00042088
C       -1.51552793       7.87250359      10.01917566        2      -0.00042624       0.00033002      -0.00297385
Ti      -1.51609318       9.62128642       8.72682828        0       0.00018249      -0.00001371      -0.00401037
Ti      -0.00049078       8.74553233      11.30783711        0      -0.00080791       0.00016380       0.00160768
O       -1.50892792       9.62876162      12.23008024        3       0.00003998       0.00028603       0.07094147
O       -0.00334326       8.74694572       7.78183640        1       0.00141997      -0.00012423      -0.00121495
C        6.06081511       0.00053419      10.00842753        2      -0.00024234      -0.00030291      -0.00130677
Ti       6.05957927       1.74913650       8.71479640        0      -0.00034375       0.00012577       0.00068961
Ti       7.57500742       0.87538158      11.29463233        0       0.00006002      -0.00007419      -0.00021622
O        6.06302564       1.75239969      12.23008024        3      -0.00017570       0.00011019       0.10997408
O        7.57421854       0.87400680       7.77513966        1       0.00029779       0.00030113       0.00051247
C        4.54521898       2.62557840      10.00388389        2      -0.00034331      -0.00003753      -0.00005813
Ti       4.54523391       4.37334303       8.71319368        0      -0.00014371       0.00011582      -0.00140344
Ti       6.05960751       3.49927179      11.29380180        0      -0.00033853       0.00013998      -0.00071095
O        4.54471028       4.37380560      12.23008024        3      -0.00002489      -0.00007057       0.10552827
O        6.06078718       3.49814805       7.77448946        1      -0.00009159       0.00020519       0.00077225
C        3.03038023       5.24792724      10.00219640        2       0.00024189      -0.00009796       0.00047479
Ti       3.02995035       6.99776036       8.71357968        0      -0.00013879      -0.00021074      -0.00089663
Ti       4.54434599       6.12216816      11.29397279        0       0.00040846      -0.00002628      -0.00021460
O        3.03054641       6.99720031      12.23008024        3       0.00016836      -0.00015598       0.09851993
O        4.54634872       6.12404098       7.77438868        1      -0.00056156      -0.00032947       0.00047803
C        1.51576957       7.87211284      10.00576681        2      -0.00028806      -0.00031210      -0.00033491
Ti       1.51402334       9.62118958       8.71591486        0      -0.00005845      -0.00020827       0.00061309
Ti       3.02978356       8.74612116      11.29451296        0       0.00013625      -0.00041101      -0.00063571
O        1.51905723       9.62376925      12.23008024        3       0.00005011      -0.00017198       0.13467777
O        3.02933960       8.74756871       7.77499581        1       0.00031690      -0.00016750       0.00065972
C        9.09009792       0.00016337      10.00353347        2       0.00000386      -0.00016433       0.00000886
Ti       9.08982175       1.74943141       8.71299636        0      -0.00004732       0.00010892      -0.00080951
Ti      10.60492072       0.87473177      11.29461999        0      -0.00007624       0.00012261      -0.00036156
O        9.09047794       1.74928329      12.23008024        3      -0.00000460       0.00010729       0.11425370
O       10.60551998       0.87438720       7.77421972        1      -0.00017558       0.00013147       0.00041213
C        7.57518305       2.62407591      10.00322728        2      -0.00036365       0.00021659       0.00014192
Ti       7.57505522       4.37389188       8.71441827        0      -0.00024095       0.00032809       0.00080333
Ti       9.08960459       3.49852770      11.29451220        0       0.00003806       0.00006924      -0.00023045
O        7.57468245       4.37040393      12.23008024        3      -0.00025893       0.00021052       0.11762703
O        9.09022706       3.49960890       7.77482674        1      -0.00006231      -0.00024559       0.00063639
C        6.05887733       5.24731778      10.00348903        2      -0.00017434       0.00034779       0.00005078
Ti       6.05963527       6.99713277       8.71542813        0       0.00066570       0.00023484       0.00091854
Ti       7.57372057       6.12221715      11.29876831        0       0.00106493       0.00053022       0.00102073
O        6.05631946       6.99569746      12.23008024        3       0.00072875       0.00019823       0.11362796
O        7.57749833       6.12546439       7.77957123        1      -0.00083948      -0.00098971      -0.00061966
C        4.54419908       7.87196221      10.00363896        2       0.00038236      -0.00048343       0.00007617
Ti       4.54532002       9.62133221       8.71385394        0       0.00002770      -0.00033733       0.00046160
Ti       6.05894793       8.74551539      11.29613309        0       0.00095755       0.00052105       0.00071620
O        4.54256681       9.62194562      12.23008024        3      -0.00001640      -0.00057179       0.11884193
O        6.06288562       8.74727060       7.77858009        1      -0.00128765      -0.00024509      -0.00057507
C        0.04154126       0.06973745      16.96296845       10       0.00585384       0.00076573      -0.01141990
C        1.25222609       0.76906381      16.94767640       10      -0.00031487      -0.00144418       0.02103987
C       -1.16854692       2.16794340      16.96828915       10      -0.00140033       0.00158105      -0.03050508
C        0.04341174       2.86770447      16.95057872       10      -0.00076155       0.00096281      -0.00801310
C       -2.38049570       4.26517231      16.96296845       10      -0.00377218       0.00133525      -0.00566548
C       -1.16967220       4.96402454      16.94767640       10      -0.00075485       0.00066648       0.00889588
C       -3.58759523       6.36790725      16.89985770       10      -0.00276726       0.00105257      -0.02330046
C       -2.38072096       7.05055226      16.85803548       10       0.00076061      -0.00108480      -0.49097007
C       -4.80090041       8.46930210      16.89985770       10       0.00313340      -0.00029060      -0.02368963
C       -3.60626510       9.17337464      16.85803548       10      -0.00107723      -0.00150270      -0.46474760
C        2.46601485       0.06379785      16.89985770       10       0.00270860      -0.00242997      -0.01914926
C        3.67934747       0.76683388      16.86777902       10       0.00333176       0.00216671       0.16726870
C        1.25498525       2.16729809      16.93663343       10       0.00068946      -0.00071959      -0.03110742
C        2.46723045       2.86644879      16.91471902       10      -0.00007190       0.00071272      -0.04161821
C        0.04263143       4.26712409      16.93663343       10       0.00035983      -0.00086572      -0.02463999
C        1.25437584       4.96701644      16.91471902       10      -0.00188347       0.00034447      -0.05740236
C       -1.17365445       6.36794147      16.89985770       10       0.00121908       0.00140630      -0.01846222
C        0.04205373       7.06681762      16.86777902       10      -0.00021156      -0.00136498       0.17081774
C       -2.38092251       8.46572499      16.40522982       10       0.00147449      -0.00237771       0.24653193
C       -1.15527425       9.17313170      16.85803548       10       0.00075516       0.00226571      -0.49253816
C        4.89239180       0.06353343      16.89985770       10      -0.00017781      -0.00334812      -0.01977484
C        6.10640410       0.76861222      16.94767640       10       0.00065120       0.00182072       0.01775934
C        3.67968010       2.16412134      16.90011273       10      -0.00191318       0.00139440      -0.09946527
C        4.89217867       2.86633732      16.91471902       10      -0.00121660       0.00052389      -0.03884181
C        2.46687448       4.26655732      16.91203741       10      -0.00201143       0.00013157      -0.01180152
C        3.67977639       4.96665951      16.90703664       10      -0.00092975       0.00127988      -0.04149980
C        1.25209900       6.36813780      16.90011273       10       0.00038999      -0.00011526      -0.09228951
C        2.46668774       7.06676148      16.91471902       10       0.00081442       0.00110858      -0.05754031
C        0.03940316       8.46905000      16.89985770       10      -0.00066480      -0.00180746      -0.01974598
C        1.25726201       9.16748181      16.94767640       10      -0.00023606       0.00404953       0.00804416
C        7.31706129       0.06935027      16.96296845       10      -0.00137191      -0.00198318      -0.00623778
C        8.52834110       0.76886864      16.96990697       10      -0.00031398       0.00092761      -0.01092483
C        6.10404055       2.16688609      16.93663343       10      -0.00108405       0.00289385      -0.04144277
C        7.31549007       2.86754928      16.95057872       10      -0.00237103      -0.00095600      -0.00092217
C        4.89258472       4.26650835      16.91203741       10      -0.00067154       0.00135064      -0.01761169
C        6.10492883       4.96703747      16.91471902       10      -0.00218064       0.00099741      -0.04083470
C        3.67963055       6.36708515      16.91203741       10      -0.00147868      -0.00014680      -0.01059351
C        4.89234006       7.06692429      16.91471902       10      -0.00065109       0.00111476      -0.04144979
C        2.46701173       8.46611751      16.93663343       10      -0.00263320      -0.00145977      -0.02376201
C        3.67930159       9.16518949      16.95057872       10       0.00001202       0.00246457      -0.00847888
C        9.73929654       0.06851154      16.96828915       10       0.00207881      -0.00035228      -0.02432353
C       10.95013757       0.76908436      16.96990697       10      -0.00072307      -0.00188523      -0.01189275
C        8.52736791       2.16782169      16.96828915       10      -0.00263994       0.00221043      -0.03176933
C        9.73933367       2.86642088      16.96990697       10       0.00241892      -0.00129982      -0.01010524
C        7.31641896       4.26701249      16.93663343       10      -0.00198726       0.00027467      -0.03544297
C        8.52855181       4.96400833      16.94767640       10       0.00234821      -0.00079686       0.01868943
C        6.10687937       6.36825059      16.90011273       10      -0.00094372      -0.00213802      -0.10736105
C        7.31687082       7.06700623      16.86777902       10       0.00047369      -0.00230695       0.16994720
C        4.89176309       8.46631196      16.93663343       10       0.00163983      -0.00056628      -0.03032257
C        6.10140508       9.16783875      16.94767640       10      -0.00242157      -0.00246317       0.02224117
O       -2.38266160       8.46729112      15.05118787       11       0.00341996      -0.00204512      -0.00019344
