130
Lattice="12.12 0.0 0.0 -6.06 10.496227893867395 0.0 0.0 0.0 40.0" Properties=species:S:1:pos:R:3:tags:I:1:forces:R:3 energy=-1200.508431667054 stress="0.0028525858763515386 -1.5154416164455343e-08 -3.922722883309729e-08 -1.5154416164455343e-08 0.0028526501090842048 -2.782809746804754e-07 -3.922722883309729e-08 -2.782809746804754e-07 0.00202887519848292" pbc="T T F"
C        0.00001652       0.00002232      10.00130525        2      -0.00000190      -0.00002393       0.00096679
Ti      -0.00000143       1.74938740       8.71033232        0       0.00001097      -0.00001503       0.00125095
Ti       1.51498096       0.87470318      11.29095839        0       0.00001162       0.00001079       0.00080926
O       -0.00009264       1.75006494      12.23008024        3       0.00003836      -0.00006725       0.09419833
O        1.51498622       0.87466216       7.77073255        1      -0.00001247      -0.00002463       0.00146028
C       -1.51506154       2.62406827      10.00108891        2      -0.00000221       0.00001217       0.00091044
Ti      -1.51500336       4.37341136       8.71027350        0      -0.00001713      -0.00002119       0.00106008
Ti      -0.00003430       3.49884330      11.29088771        0      -0.00003409       0.00001933       0.00071329
O       -1.51497054       4.37345484      12.23008024        3      -0.00006812       0.00005779       0.08285437
O        0.00000699       3.49875682       7.77070275        1       0.00000614      -0.00005874       0.00132590
C       -3.03000594       5.24810064      10.00120001        2      -0.00001987      -0.00002059       0.00078361
Ti      -3.03000793       6.99748375       8.71028528        0      -0.00002265      -0.00002761       0.00109087
Ti      -1.51488762       6.12282825      11.29081508        0       0.00000761      -0.00002134       0.00066865
O       -3.02991125       6.99725262      12.23008024        3       0.00001571      -0.00001642       0.08753636
O       -1.51499509       6.12281300       7.77069903        1      -0.00002257      -0.00002281       0.00122536
C       -4.54501337       7.87210225      10.00113346        2       0.00001713      -0.00003934       0.00093074
Ti      -4.54499071       9.62153553       8.71035193        0      -0.00000372      -0.00000051       0.00129670
Ti      -3.02994315       8.74673692      11.29090497        0      -0.00000067      -0.00007280       0.00070468
O       -4.54457244       9.62119408      12.23008024        3       0.00001994      -0.00000966       0.09320066
O       -3.02998322       8.74685499       7.77072561        1      -0.00005085       0.00000993       0.00136590
C        3.03000319       0.00000993      10.00117240        2       0.00000455      -0.00006189       0.00091195
Ti       3.02998753       1.74936333       8.71032584        0       0.00000011      -0.00000989       0.00123786
Ti       4.54499713       0.87454083      11.29092776        0      -0.00004529      -0.00008039       0.00077471
O        3.03005427       1.74949155      12.23008024        3      -0.00001890      -0.00007243       0.09442822
O        4.54502370       0.87466968       7.77072678        1      -0.00004053       0.00001162       0.00139622
C        1.51503811       2.62404950      10.00112731        2      -0.00003499       0.00001331       0.00086945
Ti       1.51500266       4.37340972       8.71028444        0       0.00001391      -0.00002876       0.00109382
Ti       3.02991880       3.49881680      11.29092007        0      -0.00004864      -0.00002908       0.00078618
O        1.51477978       4.37336956      12.23008024        3      -0.00003412       0.00000388       0.08535146
O        3.03001544       3.49875361       7.77071383        1       0.00002190      -0.00006372       0.00138213
C       -0.00000339       5.24818394      10.00113805        2      -0.00000587      -0.00001061       0.00077312
Ti      -0.00000385       6.99747997       8.71021578        0       0.00001640      -0.00001705       0.00101290
Ti       1.51490659       6.12281091      11.29080138        0       0.00002208      -0.00002807       0.00071556
O        0.00007223       6.99755028      12.23008024        3       0.00000805      -0.00005584       0.11178581
O        1.51500268       6.12281386       7.77070382        1       0.00004679      -0.00003068       0.00127835
C       -1.51495154       7.87212706      10.00117892        2      -0.00000990      -0.00004803       0.00079006
Ti      -1.51501287       9.62154636       8.71030138        0      -0.00000845      -0.00000911       0.00114647
Ti      -0.00000992       8.74677307      11.29080221        0      -0.00000160      -0.00007208       0.00070167
O       -1.51517458       9.62133816      12.23008024        3       0.00003379      -0.00012202       0.08975587
O        0.00000486       8.74685952       7.77071482        1       0.00000252       0.00002196       0.00128779
C        6.06000230      -0.00001430      10.00123701        2      -0.00001671      -0.00006928       0.00085818
Ti       6.06000142       1.74936346       8.71030060        0      -0.00001977      -0.00003557       0.00120375
Ti       7.57503958       0.87454230      11.29091306        0      -0.00002308      -0.00007143       0.00077951
O        6.06006369       1.74915099      12.23008024        3      -0.00007644      -0.00012048       0.10945062
O        7.57497307       0.87466250       7.77072163        1       0.00001012      -0.00000241       0.00138307
C        4.54501100       2.62404416      10.00121141        2      -0.00002316      -0.00006470       0.00085235
Ti       4.54499848       4.37342590       8.71029239        0       0.00000408      -0.00003894       0.00117795
Ti       6.05996505       3.49866758      11.29089009        0      -0.00002523      -0.00013439       0.00079313
O        4.54500940       4.37345306      12.23008024        3       0.00000867      -0.00014560       0.11113437
O        6.05999799       3.49873423       7.77071773        1      -0.00003202      -0.00004800       0.00138865
C        3.03000441       5.24810589      10.00121167        2       0.00000207      -0.00002252       0.00083814
Ti       3.03000477       6.99748343       8.71028783        0       0.00001462      -0.00001975       0.00114455
Ti       4.54491072       6.12284536      11.29090565        0       0.00001558      -0.00009519       0.00078242
O        3.02993382       6.99727293      12.23008024        3       0.00005775      -0.00001685       0.09389314
O        4.54497999       6.12278439       7.77071771        1       0.00002266      -0.00003119       0.00138712
C        1.51496378       7.87214114      10.00120683        2       0.00000590      -0.00004718       0.00080960
Ti       1.51500778       9.62154440       8.71029306        0      -0.00000137      -0.00002092       0.00116520
Ti       3.02992158       8.74677088      11.29089770        0       0.00001980      -0.00005820       0.00077439
O        1.51500305       9.62145540      12.23008024        3      -0.00002480      -0.00009436       0.09409887
O        3.02998911       8.74685119       7.77073147        1       0.00004758       0.00000257       0.00140207
C        9.08998718       0.00000086      10.00117583        2      -0.00001025      -0.00002572       0.00095137
Ti       9.09001173       1.74937146       8.71030790        0      -0.00000406      -0.00003173       0.00119753
Ti      10.60501981       0.87472002      11.29094933        0      -0.00001491       0.00001471       0.00081575
O        9.09010689       1.74953896      12.23008024        3      -0.00006319      -0.00002082       0.09296394
O       10.60501002       0.87465729       7.77073275        1       0.00001217      -0.00003001       0.00145161
C        7.57497787       2.62404754      10.00119816        2      -0.00001176      -0.00006147       0.00087215
Ti       7.57499948       4.37342348       8.71028377        0      -0.00003845      -0.00004097       0.00113901
Ti       9.09005227       3.49881696      11.29090345        0      -0.00003366      -0.00002405       0.00073107
O        7.57484287       4.37331890      12.23008024        3      -0.00000127      -0.00003114       0.11508599
O        9.08997831       3.49875635       7.77070162        1      -0.00002961      -0.00007523       0.00131717
C        6.05999517       5.24807058      10.00120486        2      -0.00000510      -0.00004729       0.00087164
Ti       6.06000568       6.99748766       8.71030834        0      -0.00001806      -0.00000856       0.00121354
Ti       7.57508960       6.12279149      11.29090445        0      -0.00001545      -0.00009118       0.00071443
O        6.06012475       6.99754638      12.23008024        3       0.00005330      -0.00006825       0.09372204
O        7.57500999       6.12277831       7.77071133        1      -0.00006427      -0.00002469       0.00133576
C        4.54500331       7.87212872      10.00117371        2       0.00002029      -0.00004978       0.00094100
Ti       4.54499708       9.62154069       8.71035470        0       0.00000498      -0.00001302       0.00131753
Ti       6.06001334       8.74685389      11.29095720        0       0.00001168      -0.00006437       0.00081200
O        4.54463349       9.62132794      12.23008024        3       0.00008619       0.00001628       0.09369340
O        6.05999390       8.74686799       7.77074706        1      -0.00000545      -0.00001578       0.00147395
C        0.04503883       0.06756309      17.44586971       10       0.00029715       0.00027809      -0.02275031
C        1.25710682       0.76735397      17.44586971       10      -0.00329411      -0.00130273      -0.02433909
C       -1.16702268       2.16680949      17.44586971       10       0.00022522       0.00205301      -0.02723379
C        0.04499052       2.86660464      17.44586971       10      -0.00000028      -0.00115169      -0.02886430
C       -2.37903147       4.26600893      17.44586971       10      -0.00101417       0.00056942      -0.03866290
C       -1.16700608       4.96580206      17.44586971       10       0.00084988      -0.00046835      -0.03811421
C       -3.59104316       6.36532016      17.44586971       10      -0.00110821       0.00162332      -0.03644473
C       -2.37901489       7.06513172      17.44586971       10       0.00072879      -0.00189781      -0.03803460
C       -4.80303402       8.46453562      17.44586971       10       0.00125233       0.00076556      -0.02810504
C       -3.59100066       9.16430702      17.44586971       10      -0.00070114      -0.00036522      -0.02911872
C        2.46907253       0.06757265      17.44586971       10       0.00144652       0.00004942      -0.02572715
C        3.68111889       0.76732162      17.44586971       10      -0.00234839      -0.00035069      -0.04060823
C        1.25700027       2.16684255      17.44586971       10       0.00211808       0.00160267      -0.02600050
C        2.46906273       2.86658374      17.44586971       10      -0.00209261       0.00017205      -0.03975394
C        0.04504249       4.26606563      17.44586971       10      -0.00085086       0.00021728      -0.03605629
C        1.25708043       4.96581822      17.44586971       10      -0.00103930       0.00163579      -0.03807989
C       -1.16705308       6.36526990      17.44586971       10      -0.00056887       0.00115775      -0.02758812
C        0.04496545       7.06499922      17.44586971       10       0.00102730       0.00009014      -0.02355398
C       -2.37903237       8.46459377      17.44586971       10       0.00087709       0.00085905      -0.03231277
C       -1.16696364       9.16428741      17.44586971       10       0.00046772       0.00165689      -0.03859772
C        4.89306581       0.06763865      17.44586971       10      -0.00006266      -0.00118233      -0.03655401
C        6.10503530       0.76739922      17.44586971       10       0.00073437      -0.00012761      -0.02903860
C        3.68103088       2.16681516      17.44586971       10       0.00150568       0.00008306      -0.03331697
C        4.89297089       2.86655815      17.44586971       10       0.00079748       0.00086408      -0.02339109
C        2.46908562       4.26606037      17.44586971       10       0.00097394      -0.00232552      -0.03941494
C        3.68105649       4.96579150      17.44586971       10      -0.00096576       0.00244037      -0.02864611
C        1.25702820       6.36529581      17.44586971       10      -0.00079321      -0.00071482      -0.02647171
C        2.46897937       7.06509930      17.44586971       10      -0.00146792       0.00002089      -0.03861199
C        0.04497691       8.46451708      17.44586971       10      -0.00071743       0.00028396      -0.02566481
C        1.25694323       9.16425791      17.44586971       10       0.00009752       0.00132202      -0.03833790
C        7.31700933       0.06761695      17.44586971       10      -0.00046386      -0.00151795      -0.03297462
C        8.52899676       0.76728223      17.44586971       10      -0.00082393      -0.00074753      -0.04249158
C        6.10502255       2.16694726      17.44586971       10      -0.00102763       0.00004707      -0.03934651
C        7.31703786       2.86658591      17.44586971       10       0.00059118      -0.00103548      -0.02354270
C        4.89305831       4.26604514      17.44586971       10       0.00103984      -0.00151112      -0.03577703
C        6.10500790       4.96581600      17.44586971       10       0.00088355      -0.00007610      -0.02318874
C        3.68100466       6.36530819      17.44586971       10       0.00209813      -0.00007009      -0.03345569
C        4.89299040       7.06504653      17.44586971       10      -0.00208050      -0.00148334      -0.04091833
C        2.46894937       8.46457400      17.44586971       10       0.00232753       0.00045368      -0.02749651
C        3.68094967       9.16427319      17.44586971       10      -0.00142116       0.00005275      -0.02942670
C        9.74098435       0.06753265      17.44586971       10       0.00069095       0.00046103      -0.02790756
C       10.95301343       0.76732045      17.44586971       10      -0.00121820      -0.00067362      -0.02461053
C        8.52895783       2.16676868      17.44586971       10      -0.00073725       0.00200225      -0.03660203
C        9.74094969       2.86655816      17.44586971       10       0.00113627      -0.00153950      -0.04085387
C        7.31700286       4.26605533      17.44586971       10      -0.00082690       0.00056008      -0.03103154
C        8.52899422       4.96583246      17.44586971       10       0.00103687      -0.00046584      -0.02820082
C        6.10498613       6.36523968      17.44586971       10       0.00002101       0.00125323      -0.03923261
C        7.31698317       7.06507358      17.44586971       10      -0.00021759      -0.00193158      -0.03990811
C        4.89289794       8.46449880      17.44586971       10       0.00327189       0.00139622      -0.02904091
C        6.10495326       9.16426559      17.44586971       10      -0.00028673      -0.00018402      -0.02437003
