132
Lattice="12.12 0.0 0.0 -6.06 10.496227893867395 0.0 0.0 0.0 40.0" Properties=species:S:1:pos:R:3:tags:I:1:forces:R:3 energy=-1208.8982576635042 stress="0.0027991906900255987 1.3466241199027202e-06 1.5854413471519127e-07 1.3466241199027202e-06 0.002801224317378077 1.3008700925323808e-06 1.5854413471519127e-07 1.3008700925323808e-06 0.002049611999053432" pbc="T T F"
C        0.00103733       0.00220175      10.00311323        2       0.00226986       0.00041039      -0.00229362
Ti       0.00269050       1.75047656       8.69280533        0      -0.00051833       0.00079514      -0.00136599
Ti       1.51598241       0.87687525      11.31263083        0       0.00071306      -0.00133714       0.00108578
O        0.00014135       1.75080501      12.23159545        3       0.00095413      -0.00023433       0.15520239
O        1.51593893       0.87682605       7.77102891        1      -0.00244229       0.00077858       0.00117709
C       -1.51381439       2.62632160      10.00510650        2       0.00005453      -0.00023467       0.00031975
Ti      -1.51468044       4.37642338       8.69191824        0       0.00147303       0.00015086       0.00184893
Ti      -0.00298434       3.50169011      11.31903198        0       0.00283010      -0.00021162       0.00132610
O       -1.51585530       4.37691809      12.23159545        3       0.00132011      -0.00094972       0.08953109
O        0.00018204       3.50031388       7.77440366        1       0.00007582      -0.00027245      -0.00282585
C       -3.02968359       5.25158125      10.00070871        2       0.00202671       0.00177622      -0.00194842
Ti      -3.02953240       7.00067936       8.69001282        0      -0.00095989      -0.00272201       0.00107213
Ti      -1.51477662       6.12588872      11.31219131        0      -0.00140575       0.00284459      -0.00220761
O       -3.03034776       6.99978100      12.23159545        3      -0.00000136       0.00093846       0.14203708
O       -1.51400902       6.12497587       7.77137323        1      -0.00054581      -0.00166895      -0.00047754
C       -4.54430425       7.87407267      10.00218244        2       0.00017583       0.00005655       0.00069461
Ti      -4.54464570       9.62374831       8.69295343        0      -0.00145948      -0.00002031      -0.00158834
Ti      -3.03016814       8.74892396      11.31365452        0       0.00106988      -0.00055056       0.00257580
O       -4.54555711       9.62442135      12.23159545        3       0.00029390       0.00030220       0.15931244
O       -3.02941455       8.74967523       7.77063548        1      -0.00079292       0.00030072       0.00022640
C        3.03113978       0.00217494      10.00285312        2      -0.00111276       0.00046468       0.00071383
Ti       3.03060786       1.75160954       8.69232775        0      -0.00027868       0.00107438      -0.00095026
Ti       4.54629042       0.87773974      11.31381618        0       0.00172013      -0.00043294       0.00211321
O        3.03003101       1.75154788      12.23159545        3      -0.00062926      -0.00053967       0.14807409
O        4.54530655       0.87668122       7.77055479        1       0.00002583       0.00048968       0.00138588
C        1.51571580       2.62607968      10.00344081        2       0.00009820      -0.00101121      -0.00084153
Ti       1.51599109       4.37539981       8.69323716        0      -0.00155686      -0.00003733       0.00213855
Ti       3.03084154       3.50132441      11.31225842        0       0.00028007       0.00107276       0.00078674
O        1.51450057       4.37459355      12.23159545        3      -0.00092844      -0.00081250       0.12827509
O        3.03034709       3.50100962       7.77132763        1      -0.00019696       0.00015561       0.00058904
C        0.00042236       5.25035866      10.00364380        2      -0.00149389      -0.00023973      -0.00057236
Ti       0.00093372       6.99969212       8.69286455        0      -0.00010532      -0.00040084       0.00089428
Ti       1.51536823       6.12507105      11.31236862        0       0.00262336       0.00033011      -0.00027193
O        0.00033263       6.99964414      12.23159545        3      -0.00055638       0.00007066       0.10917737
O        1.51549905       6.12476104       7.77210408        1       0.00081504      -0.00028207      -0.00052133
C       -1.51486922       7.87467325      10.00292715        2      -0.00015163      -0.00083056       0.00078806
Ti      -1.51428758       9.62366548       8.69156585        0       0.00123009       0.00010075      -0.00229892
Ti       0.00079857       8.74908899      11.31261703        0       0.00018858       0.00080533       0.00094413
O       -1.51488987       9.62396618      12.23159545        3       0.00018311      -0.00005157       0.13552069
O        0.00119232       8.74892452       7.77166061        1      -0.00066303       0.00072360       0.00057813
C        6.06032840       0.00234566      10.00298430        2      -0.00068486      -0.00002445      -0.00013262
Ti       6.06011183       1.75119955       8.69007214        0       0.00053183       0.00255040       0.00190477
Ti       7.57561120       0.87704312      11.31261185        0      -0.00341526      -0.00078355      -0.00588388
O        6.06145320       1.75217168      12.23159545        3      -0.00108408       0.00020399       0.13420349
O        7.57628316       0.87667547       7.77171996        1       0.00087594       0.00151530      -0.00070087
C        4.54621276       2.62610437      10.00219240        2      -0.00067242      -0.00008105       0.00034792
Ti       4.54552038       4.37525132       8.69123876        0       0.00166998      -0.00050786       0.00099586
Ti       6.06245110       3.50175741      11.30927803        0      -0.00085617       0.00028212      -0.00277473
O        4.54706464       4.37518304      12.23159545        3      -0.00001968      -0.00016781       0.12643411
O        6.06085941       3.50065485       7.77028647        1       0.00019752       0.00062201       0.00084248
C        3.03084683       5.24995138      10.00333642        2      -0.00016075       0.00033212       0.00025536
Ti       3.03061444       6.99990498       8.69066298        0      -0.00000621       0.00076696       0.00118880
Ti       4.54600028       6.12479203      11.31307923        0      -0.00152182       0.00031041       0.00059305
O        3.03119300       6.99991000      12.23159545        3      -0.00007944       0.00054978       0.14133750
O        4.54555708       6.12501907       7.77153366        1       0.00031505       0.00021659      -0.00120059
C        1.51588771       7.87467608      10.00338893        2       0.00007444      -0.00048015       0.00114475
Ti       1.51563865       9.62346243       8.69306731        0       0.00098760      -0.00073776       0.00109359
Ti       3.03068150       8.74976113      11.31216748        0       0.00092896      -0.00154434      -0.00071722
O        1.51569745       9.62439921      12.23159545        3       0.00003002      -0.00131529       0.13835857
O        3.03083939       8.74971256       7.77231793        1       0.00113106      -0.00054060      -0.00051079
C        9.09072799       0.00277242      10.00420760        2      -0.00002346       0.00198431      -0.00153907
Ti       9.09028494       1.75193920       8.69126101        0       0.00012938      -0.00102332       0.00343433
Ti      10.60299134       0.87938288      11.32062775        0       0.00177239      -0.00060156      -0.00005129
O        9.08936724       1.75323690      12.23159545        3       0.00145986      -0.00123760       0.09437272
O       10.60610236       0.87757561       7.77471461        1      -0.00006597       0.00055824      -0.00409657
C        7.57501868       2.62601538      10.00061193        2       0.00149905      -0.00134768      -0.00060207
Ti       7.57620031       4.37545402       8.69044302        0      -0.00103846       0.00035501       0.00423567
Ti       9.09278967       3.50062523      11.30254783        0       0.00048237       0.00078141      -0.00224057
O        7.58024027       4.37261242      12.23159545        3       0.00129041      -0.00012204       0.15502913
O        9.09178843       3.50043720       7.77102898        1       0.00037367      -0.00072944      -0.00504663
C        6.06146727       5.24982976      10.00236293        2       0.00098866       0.00031051      -0.00059221
Ti       6.06076210       7.00029546       8.69129230        0       0.00157158      -0.00055593       0.00009639
Ti       7.57578359       6.12220444      11.31165596        0       0.00053013      -0.00012922      -0.00179958
O        6.06168156       6.99942580      12.23159545        3       0.00092181       0.00116069       0.14030198
O        7.57572145       6.12511064       7.77036821        1      -0.00013308      -0.00023368       0.00088554
C        4.54604699       7.87448009      10.00332721        2       0.00014662      -0.00007802       0.00002610
Ti       4.54619756       9.62368243       8.69395928        0      -0.00044338       0.00060896       0.00071519
Ti       6.06033260       8.74882906      11.31203182        0      -0.00038828       0.00052718       0.00090348
O        4.54686983       9.62678032      12.23159545        3       0.00139031       0.00026894       0.14144039
O        6.06021959       8.74944360       7.77137197        1       0.00038380       0.00059231       0.00031359
C        0.06854918       0.05057600      17.70566425       10       0.00332438      -0.00180894      -0.07328037
C        1.27577163       0.75369347      17.71405248       10       0.00054656      -0.00110344      -0.05893685
C       -1.12120851       2.13740224      17.68129358       10      -0.00340252       0.00056663       0.50826150
C        0.06557488       2.85086557      17.68893232       10      -0.00217580      -0.00128567      -0.04448582
C       -2.36353717       4.28710960      17.68128803       10       0.00169933       0.00049944       0.35446888
C       -1.15348182       4.95964469      17.68892976       10       0.00221070       0.00070947      -0.00445856
C       -3.57638715       6.36527922      17.70566370       10      -0.00012427       0.00158621      -0.01871075
C       -2.36372348       7.05759409      17.71405228       10       0.00071170      -0.00056395      -0.00196591
C       -4.78707505       8.45369502      17.70377131       10      -0.00268180      -0.00023986      -0.04144903
C       -3.57523661       9.15313275      17.71506097       10      -0.00268079      -0.00351876      -0.03661959
C        2.48688976       0.05451346      17.71608599       10       0.00056254      -0.00210485      -0.04377100
C        3.69609428       0.75514384      17.71506088       10       0.00090380      -0.00081679      -0.04662490
C        1.28116521       2.15065594      17.70566446       10      -0.00028434      -0.00043868      -0.04996693
C        2.48619492       2.85499962      17.69660433       10       0.00124875      -0.00220995      -0.04503743
C        0.06277694       4.25589542      17.66280444       10       0.00326504      -0.00062454      -0.05601394
C        1.27018857       4.95344967      17.67447439       10       0.00241643      -0.00217461      -0.02182798
C       -1.15241054       6.36340661      17.70566370       10       0.00066365       0.00146414      -0.03861684
C        0.06067717       7.05524811      17.69660443       10      -0.00196038       0.00235489      -0.00913617
C       -2.36381520       8.45618738      17.71608620       10       0.00097537      -0.00053783      -0.04394181
C       -1.15251654       9.15289717      17.71506097       10       0.00099925       0.00187508      -0.01814310
C        4.90516209       0.05408569      17.71608599       10       0.00194038       0.00185751      -0.02183806
C        6.11636795       0.75332291      17.71405248       10       0.00172496      -0.00009596      -0.01274653
C        3.69571035       2.15433277      17.70377118       10      -0.00052873      -0.00118926      -0.01439773
C        4.90526608       2.85509353      17.69660433       10      -0.00300605       0.00164586      -0.04464329
C        2.48387991       4.25354432      17.68272083       10       0.00299548      -0.00294022      -0.02936393
C        3.69592914       4.95430293      17.67993297       10       0.00042302       0.00100500      -0.03734621
C        1.27080262       6.35443598      17.68272073       10      -0.00346317      -0.00005735      -0.06647788
C        2.48411626       7.05341881      17.67993286       10      -0.00289529       0.00083908      -0.01731108
C        0.05895328       8.45350141      17.70377131       10      -0.00055863       0.00107716      -0.06140760
C        1.27060754       9.15129537      17.69660418       10       0.00053870      -0.00361604      -0.01012203
C        7.32316426       0.05139491      17.70566425       10      -0.00050941      -0.00431083      -0.01189115
C        8.53838136       0.75386121      17.68893213       10      -0.00227780      -0.00046642      -0.02591031
C        6.10968751       2.14968699      17.70566446       10      -0.00321581       0.00075048      -0.01162207
C        7.32614609       2.84948725      17.68893232       10      -0.00178470      -0.00187523      -0.03352945
C        4.90752031       4.25291616      17.68272083       10      -0.00052698       0.00168336      -0.00044857
C        6.12062306       4.95394336      17.67447439       10      -0.00031171      -0.00045735      -0.07290791
C        3.69599314       6.35364903      17.67685497       10      -0.00067297       0.00129840      -0.03596791
C        4.90776463       7.05352935      17.67993286       10       0.00242960      -0.00162751      -0.04510856
C        2.48264465       8.45371667      17.68272056       10       0.00011051       0.00052552      -0.05209290
C        3.69590704       9.15447622      17.67447398       10      -0.00063532       0.00172937      -0.03807904
C        9.75612498       0.05269155      17.66280439       10       0.00074260       0.00192626      -0.05707984
C       10.97428829       0.75290422      17.68893213       10       0.00020449      -0.00019773      -0.06878351
C        8.51554997       2.13807665      17.68129358       10      -0.00015791       0.00069348       0.37886736
C        9.75543275       2.85494639      17.43693432       10      -0.00430427       0.00239788      -1.75518441
C        7.32837181       4.25659455      17.66280444       10      -0.00149220      -0.00100536      -0.04753846
C        8.54578501       4.96193125      17.68892976       10      -0.00137843       0.00082090      -0.01129135
C        6.12097961       6.35503310      17.68272073       10       0.00352174      -0.00118439      -0.00179383
C        7.33055325       7.05578721      17.69660443       10      -0.00018201       0.00198267      -0.03172519
C        4.90916914       8.45356681      17.68272056       10      -0.00163849      -0.00082480      -0.04312213
C        6.12154086       9.15097657      17.69660418       10      -0.00454443      -0.00238842      -0.06282202
O        9.82616281       2.80823282      15.88272154       11       0.00065726       0.00717347       0.00112874
H        9.05000670       3.26671735      15.50892715       12      -0.00113353       0.00014554       0.00002237
