131
Lattice="12.12 0.0 0.0 -6.06 10.496227893867395 0.0 0.0 0.0 40.0" Properties=species:S:1:pos:R:3:tags:I:1:forces:R:3 energy=-1205.3957286361085 stress="0.0028629641388334954 -1.1302419329672069e-06 3.3104612981150642e-06 -1.1302419329672069e-06 0.0028621595426283983 -1.8540707216235956e-06 3.3104612981150642e-06 -1.8540707216235956e-06 0.0021891870467554584" pbc="T T F"
C       -0.00132778       0.00072630      10.00496436        2       0.00023185      -0.00016823       0.00125418
Ti       0.00065136       1.74873010       8.69211456        0       0.00030558       0.00006731       0.00094207
Ti       1.51810684       0.87558581      11.31121317        0       0.00108188      -0.00138742      -0.00028863
O        0.00070839       1.75091140      12.23159545        3      -0.00010769       0.00038307       0.05918979
O        1.51669732       0.87131895       7.77567248        1       0.00053444      -0.00050655       0.00051839
C       -1.51465372       2.62362275      10.00243374        2       0.00044902      -0.00037501       0.00074009
Ti      -1.51469102       4.37437770       8.69353410        0       0.00031298      -0.00047319       0.00132016
Ti       0.00041538       3.50012003      11.30564879        0       0.00140884       0.00029588      -0.00280405
O       -1.51485740       4.37546068      12.23159545        3       0.00056153      -0.00143099       0.03823379
O       -0.00096011       3.49811332       7.76955807        1       0.00033705      -0.00008552      -0.00028779
C       -3.03019675       5.24597630      10.00412334        2       0.00029303      -0.00066421       0.00123879
Ti      -3.03187128       6.99584697       8.70193974        0       0.00055118      -0.00030794       0.00214328
Ti      -1.51311577       6.12735182      11.31777349        0      -0.00036904       0.00112451       0.00071525
O       -3.03416930       6.98601568      12.23159545        3       0.00053496      -0.00185914      -0.06601709
O       -1.51614182       6.12690180       7.77811179        1       0.00018575      -0.00012243       0.00087856
C       -4.54554631       7.87112136      10.01283794        2       0.00024034      -0.00041941       0.00168214
Ti      -4.54530169       9.62145104       8.70229599        0       0.00018934      -0.00005548       0.00164554
Ti      -3.02370916       8.74378782      11.35079009        0       0.00181550      -0.00061527       0.00154739
O       -4.54966154       9.62346065      12.23159545        3      -0.00101259       0.00060934       0.03483988
O       -3.02873634       8.74632815       7.78487588        1       0.00029600      -0.00019325       0.00194085
C        3.03064119       0.00068391      10.01429491        2       0.00052869      -0.00004905       0.00145991
Ti       3.02969968       1.74929543       8.69718716        0       0.00071861      -0.00013722       0.00108779
Ti       4.54571055       0.87834028      11.30932735        0       0.00035338      -0.00282170       0.00126475
O        3.03215062       1.75396617      12.23159545        3       0.00079634       0.00019111       0.07871112
O        4.54348015       0.87132254       7.77552054        1       0.00030567      -0.00102930       0.00081861
C        1.51481156       2.62486855      10.00264310        2       0.00079992       0.00009994       0.00140800
Ti       1.51426807       4.37258498       8.69081300        0       0.00075002       0.00016011       0.00115829
Ti       3.03082693       3.50017244      11.30340533        0       0.00076559      -0.00045286      -0.00324303
O        1.51674827       4.37345806      12.23159545        3       0.00113435      -0.00008426       0.02416596
O        3.02958756       3.49594524       7.76909360        1       0.00027427      -0.00060913      -0.00076915
C        0.00224027       5.24633413      10.00193547        2       0.00080265      -0.00048934       0.00118030
Ti       0.00258837       6.99596363       8.69839903        0       0.00001887       0.00001109       0.00150579
Ti       1.51811282       6.12102214      11.30432150        0      -0.00032402       0.00018464      -0.00197208
O        0.00777914       6.99337847      12.23159545        3       0.00111743      -0.00062014      -0.02972659
O        1.51255645       6.12416630       7.76990880        1      -0.00035048       0.00021482      -0.00002148
C       -1.51524555       7.87225177      10.02332596        2       0.00056182      -0.00033935       0.00092210
Ti      -1.51439586       9.62373228       8.70232065        0       0.00047298      -0.00032919       0.00209041
Ti      -0.00242891       8.74369856      11.31730072        0      -0.00144389      -0.00003842       0.00098171
O       -1.50738421       9.62982357      12.23159545        3       0.00174628       0.00032157      -0.07613696
O       -0.00415897       8.74589647       7.77808182        1       0.00013867      -0.00003743       0.00086482
C        6.06169013       0.00125435      10.00454460        2       0.00079755       0.00013765       0.00115429
Ti       6.06046248       1.74911000       8.69251334        0       0.00012791      -0.00000340       0.00093184
Ti       7.57532377       0.87380437      11.30443640        0      -0.00012599      -0.00025764      -0.00269491
O        6.06259893       1.75183454      12.23159545        3       0.00108259       0.00088010       0.02121491
O        7.57466123       0.87342145       7.76990160        1       0.00024471      -0.00019166      -0.00048918
C        4.54571228       2.62597309      10.00154613        2       0.00030541       0.00008853       0.00042234
Ti       4.54515393       4.37341436       8.68779297        0       0.00062543      -0.00041725       0.00141116
Ti       6.05981013       3.49863023      11.30512118        0      -0.00037959       0.00031434      -0.00406908
O        4.54560058       4.37363188      12.23159545        3       0.00032792      -0.00013781       0.01409512
O        6.06093880       3.49808863       7.76867617        1       0.00075928      -0.00044585      -0.00112604
C        3.03068741       5.24779809      10.00029550        2       0.00041754      -0.00019271       0.00059693
Ti       3.03041906       6.99854265       8.69060507        0       0.00020390      -0.00058534       0.00116701
Ti       4.54426830       6.12159111      11.30321902        0       0.00051578      -0.00064471      -0.00347887
O        3.03122162       6.99593309      12.23159545        3       0.00066244      -0.00089678       0.01546703
O        4.54711904       6.12446288       7.76898637        1       0.00063562       0.00005838      -0.00092326
C        1.51779023       7.87111427      10.00186305        2       0.00089036      -0.00044990       0.00107653
Ti       1.51432639       9.62088451       8.69366410        0       0.00047366      -0.00001739       0.00130608
Ti       3.02876965       8.74578976      11.30576865        0       0.00053734      -0.00121697      -0.00298782
O        1.51349333       9.62053393      12.23159545        3       0.00156994       0.00016689       0.03250158
O        3.02993835       8.74810658       7.76953791        1       0.00023506      -0.00008796      -0.00037194
C        9.09064189       0.00017273      10.00218978        2       0.00058058      -0.00024042       0.00087175
Ti       9.09005093       1.74933600       8.68957509        0       0.00048491      -0.00022919       0.00074267
Ti      10.60587929       0.87424403      11.30601559        0       0.00069414      -0.00032704      -0.00327781
O        9.08915114       1.75017884      12.23159545        3       0.00037535      -0.00017064       0.04869237
O       10.60602043       0.87427953       7.76957958        1       0.00052901      -0.00028543      -0.00079133
C        7.57595552       2.62357559      10.00042407        2       0.00026784      -0.00010473       0.00107382
Ti       7.57562257       4.37311914       8.69222080        0       0.00006763      -0.00015394       0.00089645
Ti       9.09101641       3.49937033      11.30460948        0       0.00023847       0.00020176      -0.00280187
O        7.57387081       4.37004834      12.23159545        3      -0.00015687      -0.00105805       0.00479420
O        9.09110694       3.49955951       7.76974842        1       0.00027120      -0.00009692      -0.00053740
C        6.05884721       5.24662181      10.00134369        2       0.00010007      -0.00022550       0.00050660
Ti       6.06032642       6.99801238       8.69675610        0       0.00040534      -0.00054800       0.00106011
Ti       7.57133737       6.11974643      11.30775479        0       0.00245021       0.00101423       0.00094836
O        6.05711132       6.99367649      12.23159545        3       0.00019137      -0.00079195       0.06068339
O        7.57724082       6.12562102       7.77477081        1       0.00102070       0.00025180       0.00084730
C        4.54414643       7.87207434      10.00241338        2       0.00037805      -0.00065492       0.00141633
Ti       4.54582329       9.62151374       8.69193197        0       0.00016946      -0.00026613       0.00091082
Ti       6.05983761       8.74374995      11.31034305        0       0.00186553      -0.00007992      -0.00039352
O        4.54345135       9.62003872      12.23159545        3      -0.00031044      -0.00022921       0.07219879
O        6.06366138       8.74738017       7.77511970        1       0.00077030      -0.00018847       0.00053503
C        0.04055500       0.07022322      16.96448366       10      -0.00197739       0.00021388       0.02017963
C        1.24876586       0.77062536      16.94919161       10       0.00257393      -0.00030485       0.00402536
C       -1.16947239       2.16769831      16.96980436       10      -0.00137118       0.00011347       0.01027683
C        0.04211894       2.86727608      16.95209393       10      -0.00115707      -0.00044550       0.00424925
C       -2.38100056       4.26503740      16.96448366       10      -0.00156472      -0.00149494       0.01134479
C       -1.17025161       4.96137675      16.94919161       10      -0.00153744       0.00047071       0.00211847
C       -3.58701917       6.36824272      16.90137291       10      -0.00085844      -0.00020128       0.04635121
C       -2.38133045       7.05009056      16.85955069       10      -0.00101312       0.00254425      -0.14683190
C       -4.80152444       8.47093057      16.90137291       10      -0.00227450      -0.00020548       0.05320158
C       -3.60869905       9.17454324      16.85955069       10       0.00331017      -0.00047133      -0.15962169
C        2.46414953       0.06338260      16.90137291       10       0.00113340      -0.00230315       0.05374721
C        3.67858146       0.76812345      16.86929423       10      -0.00088050       0.00049158      -0.02231830
C        1.25417340       2.16835902      16.93814864       10      -0.00084321      -0.00062856       0.01522661
C        2.46590666       2.86627638      16.91623423       10      -0.00158976       0.00109959       0.00573859
C        0.04291895       4.26685957      16.93814864       10      -0.00137265       0.00015107       0.00744577
C        1.25333276       4.96666388      16.91623423       10      -0.00099012       0.00047087      -0.00371523
C       -1.17552346       6.36801238      16.90137291       10      -0.00244344       0.00098530       0.02455754
C        0.04222413       7.06664684      16.86929423       10      -0.00115800      -0.00042176      -0.02271960
C       -2.38195219       8.46651678      16.40674503       10      -0.00007515       0.00083266      -0.07502866
C       -1.15502642       9.17408695      16.85955069       10      -0.00112366      -0.00020525      -0.13580473
C        4.89256159       0.06296986      16.90137291       10      -0.00051429       0.00008822       0.05343983
C        6.10816664       0.77026437      16.94919161       10      -0.00029962       0.00071827      -0.00259756
C        3.67877353       2.16412855      16.90162794       10      -0.00126684       0.00106735      -0.00311787
C        4.89209211       2.86635024      16.91623423       10      -0.00067540       0.00121691      -0.00430984
C        2.46693483       4.26719201      16.91355262       10      -0.00132744       0.00101685       0.00040996
C        3.67912478       4.96689526      16.90855185       10      -0.00192304       0.00096522      -0.01638675
C        1.25153081       6.36854437      16.90162794       10      -0.00058990       0.00056935      -0.02830272
C        2.46650727       7.06786466      16.91623423       10      -0.00076960       0.00118227      -0.00994717
C        0.03845913       8.47070709      16.90137291       10      -0.00061344      -0.00015729       0.02708814
C        1.25918240       9.16939069      16.94919161       10      -0.00042217       0.00156800      -0.00744309
C        7.31678768       0.06987652      16.96448366       10       0.00134572       0.00209055       0.00929831
C        8.52911322       0.76988342      16.97142218       10       0.00114890       0.00231510       0.01394121
C        6.10324312       2.16805406      16.93814864       10       0.00003763       0.00066976      -0.02501854
C        7.31530073       2.86754354      16.95209393       10       0.00016439       0.00019517      -0.00244558
C        4.89090611       4.26725229      16.91355262       10      -0.00212263       0.00149146      -0.03151548
C        6.10487103       4.96664113      16.91623423       10      -0.00218202       0.00085666      -0.01350070
C        3.67908754       6.36661097      16.91355262       10      -0.00180688       0.00034104      -0.00341209
C        4.89175789       7.06787675      16.91623423       10      -0.00172276      -0.00017241       0.00626137
C        2.46725536       8.46599406      16.93814864       10      -0.00013754       0.00126995       0.00518527
C        3.67899290       9.16638769      16.95209393       10      -0.00032432       0.00123381       0.00786624
C        9.73892343       0.06926652      16.96980436       10      -0.00129311      -0.00014757       0.01431011
C       10.94838638       0.76995021      16.97142218       10       0.00202618       0.00078715       0.01115268
C        8.52717996       2.16772314      16.96980436       10       0.00007079       0.00054472      -0.00635203
C        9.73873531       2.86506780      16.97142218       10      -0.00008175      -0.00126307       0.01168368
C        7.31530792       4.26697673      16.93814864       10      -0.00260022      -0.00026584      -0.03120502
C        8.52820112       4.96169664      16.94919161       10      -0.00064854      -0.00163944      -0.00724306
C        6.10626917       6.36857342      16.90162794       10      -0.00177488       0.00054125      -0.01207794
C        7.31522785       7.06674022      16.86929423       10      -0.00057073      -0.00059894      -0.02101132
C        4.89036193       8.46627311      16.93814864       10      -0.00163038      -0.00074800       0.01618463
C        6.09818581       9.16970376      16.94919161       10       0.00175556       0.00144346       0.00933133
O       -2.37866673       8.47039650      15.08298207       11      -0.00334564       0.00224899      -0.00145135
