130
Lattice="12.12 0.0 0.0 -6.06 10.496227893867395 0.0 0.0 0.0 40.0" Properties=species:S:1:pos:R:3:tags:I:1:forces:R:3 energy=-1199.6822565385519 stress="0.0028129918851937477 1.052799273794998e-08 1.4560588425812794e-09 1.052799273794998e-08 0.0028129757946284044 -3.43361312120421e-08 1.4560588425812794e-09 -3.43361312120421e-08 0.002004123608514083" pbc="T T F"
C       -0.00001752      -0.00001565      10.00045864        2       0.00008124       0.00001874       0.00068652
Ti       0.00000908       1.74929480       8.68941715        0       0.00000657      -0.00002670       0.00098805
Ti       1.51492509       0.87467507      11.31207308        0       0.00006652       0.00004908      -0.00006108
O        0.00016365       1.74831002      12.23159545        3      -0.00011950       0.00001722       0.15773596
O        1.51505532       0.87470591       7.76901444        1       0.00015109       0.00006165       0.00107805
C       -1.51499407       2.62408224      10.00093218        2       0.00003523      -0.00007975       0.00097918
Ti      -1.51495444       4.37338938       8.68936151        0       0.00005461       0.00003913       0.00154360
Ti      -0.00001761       3.49842321      11.31215147        0       0.00000423      -0.00009558       0.00046450
O       -1.51471060       4.37294029      12.23159545        3      -0.00003512       0.00003931       0.12029906
O       -0.00000595       3.49881333       7.76904270        1      -0.00000830       0.00022368       0.00145171
C       -3.02999137       5.24810665      10.00121290        2       0.00002698      -0.00001861       0.00133678
Ti      -3.02999214       6.99754145       8.68936818        0       0.00009901       0.00003312       0.00160842
Ti      -1.51501821       6.12274318      11.31218392        0      -0.00001369      -0.00003315       0.00091500
O       -3.03011618       6.99781994      12.23159545        3      -0.00005450       0.00002233       0.11941976
O       -1.51497958       6.12281726       7.76913311        1       0.00007466       0.00006628       0.00194519
C       -4.54497043       7.87218235      10.00101885        2      -0.00011754       0.00007399       0.00103258
Ti      -4.54506625       9.62159829       8.68940848        0      -0.00004982       0.00002234       0.00102561
Ti      -3.03028049       8.74699657      11.31216675        0      -0.00015283       0.00003841       0.00057596
O       -4.54592388       9.62238085      12.23159545        3       0.00002981      -0.00012484       0.15387681
O       -3.02994849       8.74681770       7.76905390        1       0.00018360      -0.00012224       0.00154139
C        3.03002745      -0.00002918      10.00093566        2      -0.00020024       0.00007969       0.00097224
Ti       3.02994113       1.74934369       8.68936389        0       0.00005413       0.00004487       0.00127516
Ti       4.54490412       0.87474249      11.31216022        0      -0.00004018       0.00004595       0.00070642
O        3.02898101       1.74888983      12.23159545        3       0.00022504       0.00004057       0.13330465
O        4.54504626       0.87469036       7.76908659        1       0.00014801      -0.00006973       0.00170959
C        1.51499956       2.62409781      10.00087539        2      -0.00007381      -0.00018244       0.00096806
Ti       1.51496117       4.37337291       8.68936820        0      -0.00003410       0.00001700       0.00156099
Ti       3.03002009       3.49865850      11.31215180        0       0.00002836       0.00002007       0.00064582
O        1.51468933       4.37281790      12.23159545        3       0.00006650       0.00009547       0.12020870
O        3.03003689       3.49878203       7.76908608        1       0.00003645       0.00014214       0.00167589
C       -0.00000568       5.24801552      10.00116038        2      -0.00001650      -0.00005145       0.00128482
Ti       0.00000497       6.99748989       8.68948718        0       0.00003436       0.00002645       0.00205777
Ti       1.51503363       6.12269212      11.31219182        0       0.00007217      -0.00011492       0.00088180
O        0.00008633       6.99761124      12.23159545        3       0.00007140      -0.00004149       0.10182238
O        1.51498852       6.12282283       7.76914125        1      -0.00004747       0.00005710       0.00198314
C       -1.51510638       7.87220716      10.00116308        2       0.00002219       0.00000266       0.00129397
Ti      -1.51505907       9.62153450       8.68938493        0      -0.00001028      -0.00006330       0.00161491
Ti      -0.00003509       8.74695764      11.31217252        0      -0.00003436       0.00006954       0.00091169
O       -1.51550619       9.62153095      12.23159545        3      -0.00006576       0.00003654       0.11760030
O        0.00000960       8.74683729       7.76914972        1       0.00000780      -0.00004998       0.00201599
C        6.05998394       0.00006293      10.00121811        2       0.00000581      -0.00007234       0.00135841
Ti       6.05999813       1.74933388       8.68937148        0       0.00001328      -0.00004937       0.00169617
Ti       7.57508055       0.87472314      11.31214979        0       0.00002755      -0.00003940       0.00078902
O        6.05999446       1.74957208      12.23159545        3      -0.00001279      -0.00008778       0.11459881
O        7.57496455       0.87468029       7.76909960        1      -0.00011678      -0.00008623       0.00180021
C        4.54489489       2.62398879      10.00114080        2       0.00002713       0.00001207       0.00123929
Ti       4.54497585       4.37343984       8.68938295        0      -0.00001126       0.00004857       0.00174969
Ti       6.05999676       3.49872858      11.31205679        0      -0.00007837      -0.00005100       0.00071362
O        4.54521684       4.37331262      12.23159545        3      -0.00011309       0.00005125       0.11121313
O        6.05999713       3.49874564       7.76916842        1       0.00000169      -0.00003111       0.00197157
C        3.03000705       5.24807514      10.00123149        2      -0.00001377       0.00000435       0.00126380
Ti       3.02998664       6.99753952       8.68938905        0      -0.00012116       0.00004876       0.00172742
Ti       4.54503368       6.12283170      11.31214785        0      -0.00003511      -0.00000982       0.00073512
O        3.03001484       6.99776622      12.23159545        3      -0.00000605      -0.00000426       0.11770075
O        4.54498255       6.12277425       7.76911646        1      -0.00013121      -0.00002709       0.00181858
C        1.51510538       7.87221357      10.00116964        2       0.00000661       0.00003515       0.00125927
Ti       1.51504260       9.62151676       8.68939728        0       0.00000646      -0.00011540       0.00172491
Ti       3.03029294       8.74702484      11.31218162        0       0.00017966       0.00003332       0.00066587
O        1.51529735       9.62142529      12.23159545        3       0.00004098       0.00005149       0.11592772
O        3.02994613       8.74682323       7.76907082        1      -0.00015141      -0.00009276       0.00165373
C        9.09000595      -0.00001501      10.00103342        2       0.00013168       0.00003467       0.00104515
Ti       9.09005037       1.74935283       8.68935072        0      -0.00007110       0.00004364       0.00134455
Ti      10.60506588       0.87472761      11.31209490        0      -0.00000658       0.00005202       0.00005136
O        9.09083655       1.74908473      12.23159545        3      -0.00003946       0.00002310       0.12723436
O       10.60493241       0.87470675       7.76901462        1      -0.00019692       0.00005339       0.00116996
C        7.57508749       2.62399149      10.00111249        2      -0.00003418       0.00000227       0.00131832
Ti       7.57501592       4.37343791       8.68939294        0      -0.00001445       0.00001865       0.00175877
Ti       9.08997788       3.49871843      11.31212631        0      -0.00005236       0.00001776       0.00069519
O        7.57474671       4.37330904      12.23159545        3       0.00005783       0.00001787       0.10751380
O        9.08997207       3.49877510       7.76909447        1      -0.00004443       0.00012589       0.00172864
C        6.05999206       5.24821282      10.00109958        2      -0.00001692      -0.00005184       0.00122793
Ti       6.06000269       6.99752772       8.68935953        0      -0.00000955      -0.00011272       0.00140583
Ti       7.57498183       6.12281076      11.31213445        0      -0.00001468      -0.00005000       0.00069711
O        6.06007149       6.99817162      12.23159545        3       0.00011566      -0.00015890       0.12320698
O        7.57501160       6.12277220       7.76911129        1       0.00011245      -0.00005909       0.00178539
C        4.54498457       7.87219147      10.00105560        2       0.00011840       0.00010959       0.00112672
Ti       4.54508532       9.62159776       8.68939469        0       0.00005982       0.00002703       0.00106508
Ti       6.06004026       8.74688436      11.31210548        0       0.00001657      -0.00011731       0.00014113
O        4.54615387       9.62233041      12.23159545        3      -0.00005999      -0.00003856       0.14891684
O        6.05999470       8.74677926       7.76902814        1      -0.00003009      -0.00021941       0.00121222
C        0.04474631       0.06751208      17.73159545       10       0.00616669       0.00152312      -0.07813811
C        1.25668848       0.76714157      17.73159545       10       0.00368704       0.00222773      -0.07198715
C       -1.16683640       2.16664709      17.73159545       10      -0.00134283       0.00067203      -0.04934735
C        0.04518370       2.86632453      17.73159545       10      -0.00268113       0.00164282      -0.03968465
C       -2.37897697       4.26601984      17.73159545       10       0.00090612      -0.00068030      -0.02681807
C       -1.16706844       4.96565395      17.73159545       10       0.00087745       0.00123233      -0.02070927
C       -3.59115710       6.36538045      17.73159545       10       0.00332745      -0.00093556      -0.02497077
C       -2.37923482       7.06507741      17.73159545       10       0.00233343      -0.00115793      -0.02016757
C       -4.80292462       8.46464091      17.73159545       10      -0.00049016      -0.00071525      -0.04528434
C       -3.59095515       9.16436076      17.73159545       10      -0.00275967      -0.00124314      -0.03498471
C        2.46863368       0.06752250      17.73159545       10       0.00485434       0.00201999      -0.05569226
C        3.68067274       0.76725152      17.73159545       10       0.00485319       0.00080654      -0.04716919
C        1.25710810       2.16654325      17.73159545       10      -0.00132361       0.00310926      -0.05538985
C        2.46904860       2.86651190      17.73159545       10      -0.00121742      -0.00014178      -0.05147209
C        0.04498690       4.26590403      17.73159545       10       0.00040129       0.00130897      -0.05851866
C        1.25695693       4.96571967      17.73159545       10       0.00081773      -0.00016501      -0.02025020
C       -1.16718091       6.36525309      17.73159545       10       0.00229208       0.00166236      -0.05512087
C        0.04482935       7.06510858      17.73159545       10       0.00169557      -0.00174961      -0.01892816
C       -2.37892715       8.46457136      17.73159545       10      -0.00101998      -0.00067756      -0.05782412
C       -1.16696734       9.16439933      17.73159545       10      -0.00100909      -0.00144249      -0.01988151
C        4.89275729       0.06755335      17.73159545       10       0.00328445       0.00019832      -0.03405551
C        6.10486206       0.76725792      17.73159545       10       0.00242145       0.00223058      -0.02813197
C        3.68100802       2.16673772      17.73159545       10      -0.00172800      -0.00011661      -0.02146960
C        4.89318608       2.86651700      17.73159545       10      -0.00199732      -0.00022601      -0.06192642
C        2.46896948       4.26605725      17.73159545       10       0.00016148      -0.00071044      -0.03195707
C        3.68107381       4.96576339      17.73159545       10      -0.00014107       0.00077036      -0.03235177
C        1.25684046       6.36531908      17.73159545       10       0.00199996       0.00026066      -0.06113699
C        2.46896334       7.06504248      17.73159545       10       0.00173219       0.00012623      -0.01971647
C        0.04514308       8.46464517      17.73159545       10      -0.00240206      -0.00221389      -0.06568147
C        1.25728022       9.16430427      17.73159545       10      -0.00325232      -0.00020435      -0.01961431
C        7.31690742       0.06744409      17.73159545       10       0.00101319       0.00144103      -0.03096897
C        8.52891522       0.76723986      17.73159545       10       0.00099588       0.00070192      -0.04401319
C        6.10515698       2.16668234      17.73159545       10      -0.00167713       0.00179049      -0.01924767
C        7.31715609       2.86657608      17.73159545       10      -0.00226993      -0.00161074      -0.06408033
C        4.89304477       4.26604116      17.73159545       10      -0.00081619       0.00020500      -0.01916121
C        6.10500826       4.96588499      17.73159545       10      -0.00040365      -0.00129516      -0.06719821
C        3.68086986       6.36533666      17.73159545       10       0.00122423       0.00018051      -0.02694164
C        4.89287319       7.06521820      17.73159545       10       0.00132413      -0.00310581      -0.04614611
C        2.46930572       8.46455099      17.73159545       10      -0.00483549      -0.00081967      -0.05831499
C        3.68138208       9.16442100      17.73159545       10      -0.00486370      -0.00203837      -0.02925557
C        9.74094805       0.06758616      17.73159545       10       0.00271166       0.00122495      -0.05194939
C       10.95292988       0.76722337      17.73159545       10       0.00044156       0.00067511      -0.06768539
C        8.52923634       2.16670043      17.73159545       10      -0.00231988       0.00119945      -0.02074652
C        9.74122209       2.86648077      17.73159545       10      -0.00331630       0.00097931      -0.05350797
C        7.31705906       4.26611249      17.73159545       10      -0.00087501      -0.00118231      -0.01904736
C        8.52897638       4.96579690      17.73159545       10      -0.00091676       0.00074396      -0.03771325
C        6.10482574       6.36549427      17.73159545       10       0.00266639      -0.00165193      -0.02031598
C        7.31687579       7.06512550      17.73159545       10       0.00132547      -0.00069205      -0.05144195
C        4.89332877       8.46471403      17.73159545       10      -0.00370471      -0.00224381      -0.04746568
C        6.10526312       9.16442546      17.73159545       10      -0.00619686      -0.00155884      -0.06560787
