130
Lattice="12.12 0.0 0.0 -6.06 10.496227893867395 0.0 0.0 0.0 40.0" Properties=species:S:1:pos:R:3:tags:I:1:forces:R:3 energy=-1201.2641048960932 stress="0.0028037877793222945 -1.625626827016949e-07 -1.3781168863234315e-07 -1.625626827016949e-07 0.0028039001957178246 -4.6552952080466755e-07 -1.3781168863234315e-07 -4.6552952080466755e-07 0.002860045795653691" pbc="T T F"
C       -0.00006182      -0.00014025      10.00704298        2       0.00003025       0.00011251      -0.00327010
Ti       0.00000010       1.74924024       8.71664336        0      -0.00016397      -0.00039465      -0.00178169
Ti       1.51555900       0.87467372      11.30316488        0      -0.00039169      -0.00064654       0.00432132
O       -0.00008603       1.75009069      12.23008024        3       0.00025748       0.00054028      -0.20126620
O        1.51452391       0.87442394       7.77751061        1       0.00026963       0.00015514       0.00066102
C       -1.51518299       2.62409435      10.00572509        2       0.00007344       0.00035499      -0.00232893
Ti      -1.51488086       4.37335213       8.71431286        0      -0.00008219       0.00002022      -0.00125599
Ti       0.00009461       3.50007253      11.30174776        0      -0.00044684      -0.00070229       0.00364549
O       -1.51517981       4.37532543      12.23008024        3       0.00032784       0.00064120      -0.21655925
O        0.00002760       3.49804323       7.77686748        1       0.00014475       0.00043014       0.00098402
C       -3.03011586       5.24799921      10.00404190        2       0.00000438      -0.00016767      -0.00211501
Ti      -3.02996860       6.99758019       8.71422247        0      -0.00000198       0.00005711      -0.00148361
Ti      -1.51460668       6.12300679      11.29988941        0      -0.00018575       0.00020545       0.00443731
O       -3.02845511       6.99641818      12.23008024        3       0.00073965      -0.00024982      -0.21400302
O       -1.51494754       6.12277493       7.77609503        1       0.00021559       0.00000217       0.00136489
C       -4.54503564       7.87191530      10.00551452        2       0.00013994      -0.00030540      -0.00264042
Ti      -4.54510983       9.62160296       8.71633345        0      -0.00013018      -0.00016774      -0.00195005
Ti      -3.02876082       8.74629100      11.30139722        0      -0.00030430      -0.00011227       0.00469448
O       -4.54434641       9.62096652      12.23008024        3       0.00016448       0.00017846      -0.20501737
O       -3.03050958       8.74721054       7.77680078        1       0.00036289      -0.00025523       0.00112783
C        3.03013760      -0.00001548      10.00590448        2       0.00040076       0.00021448      -0.00263701
Ti       3.02981362       1.74925369       8.71497263        0      -0.00025514      -0.00050433      -0.00143741
Ti       4.54590650       0.87464511      11.29973437        0      -0.00022900      -0.00065946       0.00311282
O        3.03087192       1.74965803      12.23008024        3       0.00011991       0.00044457      -0.22037746
O        4.54442574       0.87440244       7.77591140        1       0.00018870       0.00003085       0.00127617
C        1.51510774       2.62409515      10.00594676        2       0.00020679       0.00057028      -0.00226422
Ti       1.51489259       4.37337515       8.71454296        0      -0.00024153      -0.00003682      -0.00092055
Ti       3.03034076       3.49939224      11.29955284        0      -0.00001742      -0.00053485       0.00272844
O        1.51500617       4.37549166      12.23008024        3       0.00018659       0.00079770      -0.21470228
O        3.02946734       3.49831867       7.77584987        1       0.00012718       0.00026585       0.00118521
C       -0.00001393       5.24803359      10.00475467        2       0.00025380      -0.00014812      -0.00221218
Ti       0.00003101       6.99749948       8.71441051        0      -0.00020227       0.00009695      -0.00088276
Ti       1.51447167       6.12315898      11.30065606        0      -0.00009756       0.00038104       0.00365610
O       -0.00006737       6.99737906      12.23008024        3       0.00023717      -0.00034303      -0.18797342
O        1.51496480       6.12271948       7.77620693        1      -0.00009184      -0.00009935       0.00127172
C       -1.51506840       7.87217368      10.00475666        2       0.00030840      -0.00012834      -0.00253476
Ti      -1.51505153       9.62145480       8.71464303        0      -0.00016195      -0.00027485      -0.00134030
Ti       0.00004614       8.74616529      11.30101504        0      -0.00012573       0.00012299       0.00405334
O       -1.51310840       9.62041798      12.23008024        3       0.00061398      -0.00027248      -0.21180972
O       -0.00004435       8.74689015       7.77628661        1       0.00000364      -0.00034256       0.00127889
C        6.05998712       0.00006846      10.00434612        2      -0.00010307       0.00005767      -0.00205589
Ti       6.05995656       1.74918211       8.71278984        0       0.00016626      -0.00037141      -0.00077230
Ti       7.57409564       0.87458028      11.29930251        0       0.00063607      -0.00025702       0.00330837
O        6.06006272       1.74928983      12.23008024        3      -0.00002834       0.00004408      -0.21447762
O        7.57544064       0.87438795       7.77574152        1      -0.00032978      -0.00005750       0.00140519
C        4.54508077       2.62406517      10.00374675        2      -0.00017491       0.00014475      -0.00137099
Ti       4.54483151       4.37343557       8.71274062        0       0.00003662       0.00011884      -0.00063927
Ti       6.05995651       3.49877695      11.29538335        0       0.00041452      -0.00022660       0.00251554
O        4.54503794       4.37340303      12.23008024        3      -0.00038793       0.00004924      -0.21423131
O        6.05993084       3.49861831       7.77445581        1      -0.00016771       0.00004188       0.00164688
C        3.03006854       5.24801361      10.00422331        2      -0.00010596      -0.00025192      -0.00179361
Ti       3.02993131       6.99757181       8.71434933        0      -0.00010487       0.00026267      -0.00109398
Ti       4.54446673       6.12209164      11.29915714        0       0.00046037       0.00071587       0.00298452
O        3.02849006       6.99682948      12.23008024        3      -0.00079556      -0.00064849      -0.20976795
O        4.54494397       6.12327827       7.77559182        1      -0.00023335      -0.00044131       0.00137142
C        1.51506417       7.87219517      10.00478968        2      -0.00003685      -0.00027273      -0.00234737
Ti       1.51504056       9.62142202       8.71453676        0       0.00006280      -0.00016087      -0.00130996
Ti       3.02888435       8.74629818      11.30155392        0       0.00034829       0.00044081       0.00395570
O        1.51353836       9.62052363      12.23008024        3      -0.00067894      -0.00065411      -0.20913799
O        3.03046771       8.74715837       7.77674097        1      -0.00035759      -0.00041873       0.00118688
C        9.08985249       0.00007726      10.00560012        2      -0.00036587      -0.00020579      -0.00242280
Ti       9.09009721       1.74929051       8.71456048        0       0.00028152      -0.00030438      -0.00161360
Ti      10.60408823       0.87469110      11.30239401        0       0.00005056      -0.00046187       0.00397049
O        9.08858894       1.74976618      12.23008024        3      -0.00045568       0.00011808      -0.22162415
O       10.60551999       0.87444993       7.77729427        1      -0.00016451       0.00003357       0.00097260
C        7.57485081       2.62409855      10.00355640        2      -0.00029524       0.00003125      -0.00165134
Ti       7.57511549       4.37344497       8.71278655        0       0.00020192       0.00010528      -0.00105607
Ti       9.08968408       3.49928827      11.29936133        0       0.00003446      -0.00038359       0.00326620
O        7.57500179       4.37336314      12.23008024        3      -0.00022258      -0.00017922      -0.21169325
O        9.09050146       3.49839568       7.77564021        1      -0.00016095       0.00019666       0.00136300
C        6.05999329       5.24786839      10.00345577        2      -0.00034933      -0.00027664      -0.00162574
Ti       6.05999874       6.99752081       8.71432143        0       0.00011985       0.00035173      -0.00159513
Ti       7.57537497       6.12213358      11.29937528        0       0.00008612       0.00033454       0.00344263
O        6.05978888       6.99567915      12.23008024        3      -0.00038502      -0.00056563      -0.22204314
O        7.57502981       6.12331184       7.77554584        1      -0.00000008      -0.00032478       0.00144445
C        4.54505026       7.87194650      10.00543889        2      -0.00045971      -0.00049938      -0.00244002
Ti       4.54509004       9.62159654       8.71604835        0       0.00014138       0.00000422      -0.00172194
Ti       6.05980298       8.74573981      11.30147260        0      -0.00009669       0.00028822       0.00473422
O        4.54442175       9.62115016      12.23008024        3      -0.00040901      -0.00036569      -0.20922253
O        6.06004234       8.74743619       7.77713477        1      -0.00006009      -0.00036511       0.00098995
C        0.04505510       0.06762948      15.59850129       10      -0.00506577      -0.00363745       0.10875989
C        1.25709621       0.76745531      15.59850129       10       0.00488605       0.00116808       0.07089019
C       -1.16717565       2.16731693      15.59850129       10       0.00155693      -0.00606374       0.07321623
C        0.04497521       2.86666593      15.59850129       10       0.00001921       0.00060581       0.06229534
C       -2.37910258       4.26627741      15.59850129       10       0.00209249      -0.00298000       0.06480674
C       -1.16704446       4.96573577      15.59850129       10       0.00018141       0.00112810       0.05829638
C       -3.59083259       6.36519680      15.59850129       10       0.00116220      -0.00409637       0.06466655
C       -2.37893709       7.06496248      15.59850129       10      -0.00231488       0.00332123       0.05716434
C       -4.80273746       8.46433851      15.59850129       10      -0.00428096      -0.00183899       0.06829367
C       -3.59103886       9.16432387      15.59850129       10       0.00476113       0.00005919       0.06381440
C        2.46943886       0.06753270      15.59850129       10      -0.00187732       0.00270497       0.07536951
C        3.68119647       0.76756838      15.59850129       10      -0.00188486      -0.00348831       0.06652528
C        1.25710346       2.16728068      15.59850129       10      -0.00061175      -0.00268487       0.07814639
C        2.46909324       2.86670273      15.59850129       10      -0.00061541       0.00091772       0.06765422
C        0.04501686       4.26637781      15.59850129       10      -0.00100668      -0.00129344       0.06967307
C        1.25709756       4.96566426      15.59850129       10       0.00018728       0.00165785       0.05618546
C       -1.16661015       6.36542445      15.59850129       10      -0.00531782      -0.00243843       0.06317174
C        0.04520405       7.06509519      15.59850129       10      -0.00162547       0.00114363       0.07629463
C       -2.37876062       8.46440562      15.59850129       10      -0.00212629       0.00128779       0.06888430
C       -1.16712354       9.16453994      15.59850129       10      -0.00001242      -0.00608543       0.05531950
C        4.89318798       0.06758957      15.59850129       10      -0.00097544       0.00639376       0.06661502
C        6.10506155       0.76765308      15.59850129       10      -0.00203213      -0.00327750       0.05542253
C        3.68103250       2.16698410      15.59850129       10       0.00140038      -0.00005884       0.04831935
C        4.89289395       2.86672021      15.59850129       10       0.00101055      -0.00137187       0.08614529
C        2.46910166       4.26622357      15.59850129       10       0.00150865       0.00070080       0.06550604
C        3.68124652       4.96577737      15.59850129       10      -0.00147631      -0.00051927       0.05952075
C        1.25708409       6.36536344      15.59850129       10      -0.00085633       0.00127319       0.06477823
C        2.46926791       7.06511842      15.59850129       10      -0.00153643       0.00062632       0.05675728
C        0.04500947       8.46453124      15.59850129       10       0.00215617       0.00329611       0.06490317
C        1.25710611       9.16455771      15.59850129       10       0.00096132      -0.00597541       0.05677827
C        7.31696276       0.06757552      15.59850129       10       0.00009489       0.00629495       0.06807215
C        8.52889932       0.76763909      15.59850129       10       0.00159832      -0.00106104       0.06557599
C        6.10485240       2.16699814      15.59850129       10       0.00132811      -0.00044414       0.06161341
C        7.31678505       2.86664940      15.59850129       10       0.00532278       0.00238950       0.09204201
C        4.89309770       4.26613568      15.59850129       10      -0.00040875      -0.00134417       0.06476898
C        6.10499118       4.96587537      15.59850129       10       0.00126040       0.00109449       0.09754869
C        3.68103123       6.36531784      15.59850129       10       0.00083085      -0.00093315       0.06694540
C        4.89316949       7.06494074      15.59850129       10       0.00080202       0.00279063       0.06537662
C        2.46885647       8.46452332      15.59850129       10       0.00265299       0.00347112       0.06779163
C        3.68109725       9.16448367      15.59850129       10       0.00183871      -0.00210649       0.06406833
C        9.74078771       0.06767404      15.59850129       10      -0.00438914       0.00037445       0.06930075
C       10.95296309       0.76749977      15.59850129       10       0.00396336       0.00207962       0.07188419
C        8.52875227       2.16705761      15.59850129       10       0.00237977      -0.00285978       0.05181780
C        9.74081926       2.86671653      15.59850129       10      -0.00138255       0.00417961       0.06674481
C        7.31683089       4.26605840      15.59850129       10      -0.00008900      -0.00080414       0.06950121
C        8.52878668       4.96563897      15.59850129       10      -0.00181653       0.00311703       0.06478345
C        6.10508074       6.36523275      15.59850129       10      -0.00000793      -0.00064979       0.05453907
C        7.31711487       7.06482443      15.59850129       10      -0.00128604       0.00614422       0.06525612
C        4.89292440       8.46442811      15.59850129       10      -0.00438268      -0.00100858       0.06767694
C        6.10503466       9.16425852      15.59850129       10       0.00506391       0.00387787       0.07263325
