131
Lattice="12.12 0.0 0.0 -6.06 10.496227893867395 0.0 0.0 0.0 40.0" Properties=species:S:1:pos:R:3:tags:I:1:forces:R:3 energy=-1206.0598186135048 stress="0.002929834001089874 -4.136289931924518e-06 3.221890921207108e-06 -4.136289931924518e-06 0.002923332999334413 2.2348693504039995e-06 3.221890921207108e-06 2.2348693504039995e-06 0.002575587963257063" pbc="T T F"
C        0.00031817       0.00034567      10.00659266        2       0.00142032      -0.00033431      -0.00054981
Ti       0.00137859       1.74903064       8.71714592        0      -0.00025399      -0.00050149      -0.00150779
Ti       1.51574562       0.87720619      11.30733428        0       0.00060557      -0.00016502      -0.00013138
O       -0.00209472       1.75099097      12.23008024        3       0.00020390      -0.00076220       0.01368547
O        1.51904157       0.87029772       7.78617656        1       0.00006829      -0.00055095      -0.00119372
C       -1.51424868       2.62370903      10.00369575        2       0.00088753       0.00068223      -0.00118573
Ti      -1.51478777       4.37470364       8.72086639        0       0.00003658       0.00022741      -0.00143645
Ti       0.00083332       3.49882719      11.30506917        0       0.00034645      -0.00089364       0.00207206
O       -1.51370031       4.36332294      12.23008024        3      -0.00051923       0.00149405       0.04193477
O       -0.00053269       3.49955201       7.78043272        1       0.00022537       0.00076391      -0.00082363
C       -3.02982702       5.24508946      10.00889755        2       0.00022535       0.00112967       0.00082147
Ti      -3.03003037       6.99873357       8.73664328        0       0.00036485       0.00084262       0.00001240
Ti      -1.51689256       6.12359596      11.32035586        0       0.00039916      -0.00064373      -0.00077113
O       -3.04264769       6.96131004      12.23008024        3       0.00227724       0.00849836      -0.27663265
O       -1.51617762       6.12907138       7.79097646        1       0.00064165       0.00027686      -0.00043974
C       -4.53941018       7.87460674      10.02554264        2      -0.00236222      -0.00143431      -0.00270018
Ti      -4.54210427       9.62049577       8.73236137        0       0.00075642      -0.00017539      -0.00078341
Ti      -3.02723196       8.74670837      11.36283431        0       0.00201913       0.00010418       0.00299696
O       -4.55943009       9.63052069      12.23008024        3       0.00382410      -0.00177056       0.02566869
O       -3.02692660       8.74580352       7.79580781        1       0.00071078       0.00013026      -0.00042923
C        3.03139868      -0.00436704      10.02540818        2       0.00052984       0.00318850      -0.00242207
Ti       3.03077773       1.75097890       8.72069892        0      -0.00018170      -0.00052611      -0.00046964
Ti       4.54641934       0.87990747      11.30916581        0       0.00020543      -0.00014354      -0.00126143
O        3.02661913       1.75680509      12.23008024        3       0.00143776       0.00029273       0.02345010
O        4.54312367       0.86927057       7.78724175        1       0.00052512       0.00008035      -0.00105663
C        1.51550722       2.62530166      10.00462879        2      -0.00099204       0.00014346      -0.00039746
Ti       1.51478572       4.37333905       8.71765092        0       0.00045503      -0.00017292      -0.00103104
Ti       3.02990851       3.50118258      11.30345624        0      -0.00048028       0.00040753       0.00181920
O        1.51492754       4.37240877      12.23008024        3       0.00082082       0.00103359       0.01212880
O        3.02924395       3.49602652       7.77979014        1       0.00069560       0.00011860      -0.00078896
C        0.00064047       5.24772588      10.00903547        2      -0.00015391      -0.00047806      -0.00012164
Ti       0.00134463       6.99744335       8.72741311        0       0.00021547       0.00022169       0.00020193
Ti       1.51705192       6.12227978      11.30362409        0      -0.00106778       0.00106338       0.00035482
O        0.00905219       6.99300047      12.23008024        3      -0.00073645       0.00103237       0.02731012
O        1.51039191       6.12606768       7.78306559        1       0.00113552      -0.00016765      -0.00084258
C       -1.51798531       7.87508743      10.03627910        2       0.00228676      -0.00088643      -0.00347128
Ti      -1.51533836       9.62206436       8.73660962        0      -0.00000560      -0.00016209      -0.00021427
Ti      -0.00115483       8.74990851      11.32075574        0       0.00150187       0.00055476      -0.00084826
O       -1.48478609       9.65621460      12.23008024        3      -0.00740304      -0.00653612      -0.36964494
O       -0.00538900       8.74570354       7.79080342        1       0.00037912      -0.00005626      -0.00052762
C        6.06386849       0.00280330      10.00831485        2      -0.00045865      -0.00002894       0.00111580
Ti       6.06069196       1.74928190       8.71773277        0       0.00105795      -0.00032174      -0.00209634
Ti       7.57728086       0.87743498      11.30415886        0       0.00048537       0.00022271       0.00121088
O        6.06699654       1.75550784      12.23008024        3       0.00018022      -0.00046555       0.00080295
O        7.57484381       0.87400888       7.77939692        1       0.00013936      -0.00026214      -0.00098422
C        4.54559950       2.62825578      10.00363898        2       0.00101176      -0.00092933      -0.00018405
Ti       4.54556656       4.37361280       8.71564773        0       0.00070543       0.00042771      -0.00101110
Ti       6.05884399       3.50011257      11.30184370        0       0.00137605       0.00025068       0.00282725
O        4.54413398       4.37385233      12.23008024        3      -0.00006682       0.00074594      -0.01486634
O        6.06154333       3.49861088       7.77876038        1      -0.00018304       0.00053361      -0.00091333
C        3.03032312       5.24846016      10.00344247        2       0.00047212       0.00020313      -0.00217581
Ti       3.03047843       6.99836999       8.71769877        0       0.00113122       0.00051798      -0.00084718
Ti       4.54346827       6.12210670      11.30398221        0      -0.00013260       0.00051679       0.00194059
O        3.03160297       6.99870130      12.23008024        3       0.00012653      -0.00071143       0.00574965
O        4.54760629       6.12569798       7.77993480        1       0.00093953       0.00046472      -0.00070173
C        1.51654840       7.87278604      10.00906236        2       0.00072056       0.00105427      -0.00014702
Ti       1.51468280       9.62167493       8.72070651        0       0.00033623       0.00047698      -0.00158652
Ti       3.03118925       8.74709806      11.30463623        0       0.00179659       0.00066158       0.00217669
O        1.52551923       9.62682465      12.23008024        3      -0.00097672       0.00045216       0.03697921
O        3.02968780       8.74760620       7.78041836        1      -0.00023566       0.00018124      -0.00081192
C        9.09134413       0.00035799      10.00374911        2       0.00026144      -0.00032941      -0.00139256
Ti       9.09122224       1.74930110       8.71514496        0       0.00058613       0.00007722       0.00019763
Ti      10.60642194       0.87467227      11.30351489        0       0.00080269      -0.00006124       0.00207689
O        9.09361038       1.74795579      12.23008024        3       0.00061112       0.00020194       0.01868224
O       10.60679613       0.87409716       7.77862365        1       0.00057795       0.00013590      -0.00032225
C        7.57603844       2.62418812      10.00348993        2       0.00067976       0.00019460      -0.00177443
Ti       7.57590395       4.37386206       8.71785002        0       0.00132797       0.00008109      -0.00180373
Ti       9.08940499       3.49628443      11.30413238        0       0.00056453       0.00029659       0.00121942
O        7.57431140       4.36623639      12.23008024        3       0.00083681       0.00064254       0.00777652
O        9.09097086       3.50033495       7.77958750        1       0.00074079       0.00071927      -0.00079970
C        6.05752156       5.24667063      10.00391448        2       0.00161340       0.00015652      -0.00042267
Ti       6.05951720       6.99686673       8.72103554        0       0.00096766       0.00123392      -0.00006277
Ti       7.57230842       6.11993004      11.30900197        0       0.00076656       0.00103211      -0.00119043
O        6.05296088       6.99671901      12.23008024        3       0.00068960      -0.00053504       0.02504553
O        7.57937550       6.12817038       7.78752711        1       0.00095169       0.00020145      -0.00101080
C        4.54483802       7.87182419      10.00489851        2      -0.00001917       0.00149558      -0.00060716
Ti       4.54655368       9.62132151       8.71729432        0       0.00063060       0.00120778      -0.00135956
Ti       6.05914543       8.74586042      11.30735360        0       0.00109234      -0.00002524      -0.00001300
O        4.54378286       9.62376566      12.23008024        3       0.00078126       0.00062309       0.01543869
O        6.06640224       8.74629351       7.78628238        1       0.00104206       0.00123028      -0.00122864
C        0.04116623       0.06935137      16.25244214       10      -0.00696627      -0.00040901      -0.01401536
C        1.25179137       0.76894844      16.23715009       10      -0.00126248       0.00021078       0.04994251
C       -1.16913500       2.16788116      16.25776284       10      -0.00059045      -0.00198804      -0.01647673
C        0.04281610       2.86771629      16.24005241       10      -0.00042401      -0.00063305       0.02634102
C       -2.38124626       4.26490291      16.25244214       10       0.00102896      -0.00269446       0.03230857
C       -1.17026052       4.96365732      16.23715009       10      -0.00042370      -0.00170244       0.03819650
C       -3.58822744       6.36727718      16.18933139       10       0.00200737      -0.00113033       0.01295616
C       -2.38156348       7.04872634      16.14750917       10      -0.00026076       0.00116578      -0.39164903
C       -4.80123202       8.46869589      16.18933139       10      -0.00232429       0.00016652       0.00229105
C       -3.60838366       9.17359854      16.14750917       10       0.00219399      -0.00008896      -0.38354936
C        2.46601883       0.06293967      16.18933139       10      -0.00451835       0.00089118      -0.00359211
C        3.67905820       0.76684179      16.15725271       10      -0.00313311      -0.00224530       0.19855599
C        1.25456379       2.16722031      16.22610712       10      -0.00217083      -0.00140551      -0.02215619
C        2.46658364       2.86645809      16.20419271       10      -0.00001646      -0.00077072      -0.00819901
C        0.04206014       4.26724396      16.22610712       10      -0.00049960      -0.00092645       0.01235063
C        1.25363046       4.96706699      16.20419271       10       0.00175679      -0.00082060      -0.01548695
C       -1.17438005       6.36772040      16.18933139       10      -0.00176776      -0.00229500       0.02861323
C        0.04167020       7.06627141      16.15725271       10       0.00012351       0.00056012       0.18164997
C       -2.38349408       8.46445713      15.69470351       10      -0.00111086       0.00119139       0.79402448
C       -1.15642843       9.17267551      16.14750917       10      -0.00113390      -0.00285534      -0.44560056
C        4.89169525       0.06238745      16.18933139       10      -0.00262919       0.00237737       0.01297027
C        6.10570248       0.76825166      16.23715009       10      -0.00168190      -0.00235247       0.04203304
C        3.67903962       2.16411113      16.18958642       10      -0.00141627      -0.00052525      -0.06242922
C        4.89118256       2.86636114      16.20419271       10       0.00023370      -0.00129482      -0.01873350
C        2.46605085       4.26665600      16.20151110       10       0.00033061      -0.00026082       0.03108305
C        3.67863502       4.96675412      16.19651033       10       0.00045817      -0.00159980      -0.01069671
C        1.25149134       6.36795604      16.18958642       10      -0.00007159      -0.00093204      -0.04046297
C        2.46575222       7.06660578      16.20419271       10      -0.00091786      -0.00129183      -0.01736309
C        0.03771076       8.46875723      16.18933139       10       0.00080008       0.00107790       0.03585549
C        1.25608830       9.16729464      16.23715009       10       0.00010439      -0.00268390       0.03099087
C        7.31621669       0.06915543      16.25244214       10       0.00030484       0.00283962       0.03575470
C        8.52768215       0.76865321      16.25938066       10      -0.00128430       0.00019003       0.01361673
C        6.10303755       2.16652527      16.22610712       10      -0.00093402      -0.00164102      -0.00515434
C        7.31472966       2.86710317      16.24005241       10       0.00079522       0.00061063       0.01762395
C        4.89140335       4.26663318      16.20151110       10      -0.00145630      -0.00068821       0.02240454
C        6.10389368       4.96691572      16.20419271       10      -0.00013682      -0.00060871      -0.02080392
C        3.67856118       6.36692034      16.20151110       10      -0.00019392       0.00018642       0.03285383
C        4.89133926       7.06660241      16.20419271       10      -0.00049717      -0.00038598      -0.01049632
C        2.46557334       8.46571133      16.22610712       10       0.00181731       0.00112061       0.01633233
C        3.67809378       9.16488707      16.24005241       10      -0.00056358      -0.00137852       0.02209001
C        9.73852768       0.06819891      16.25776284       10      -0.00300337      -0.00025078      -0.00934300
C       10.94964227       0.76876729      16.25938066       10      -0.00280865       0.00257532       0.01669862
C        8.52663428       2.16759250      16.25776284       10       0.00011643      -0.00213918       0.00121469
C        9.73877271       2.86609057      16.25938066       10      -0.00290130      -0.00019994       0.01203458
C        7.31552968       4.26674876      16.22610712       10      -0.00014718      -0.00000429      -0.00448385
C        8.52783794       4.96333669      16.23715009       10      -0.00160637      -0.00051045       0.04531946
C        6.10585870       6.36782105      16.18958642       10      -0.00048581       0.00156748      -0.06200158
C        7.31597404       7.06625306      16.15725271       10      -0.00043573       0.00165862       0.19411243
C        4.89073044       8.46584479      16.22610712       10      -0.00145704       0.00078120      -0.01103682
C        6.10034025       9.16733804      16.23715009       10       0.00120849       0.00246229       0.05055582
O       -2.39545461       8.45444505      14.35494015       11       0.00297588      -0.00141515      -0.00274474
