130
Lattice="12.12 0.0 0.0 -6.06 10.496227893867395 0.0 0.0 0.0 40.0" Properties=species:S:1:pos:R:3:tags:I:1:forces:R:3 energy=-1202.1848920245689 stress="0.002902003679424966 4.745030126180582e-08 1.6507517389249263e-07 4.745030126180582e-08 0.002901726077357574 2.3946918281741683e-08 1.6507517389249263e-07 2.3946918281741683e-08 0.002464254247335061" pbc="T T F"
C        0.00001963       0.00003137      10.00425973        2       0.00001615       0.00020545      -0.00405183
Ti      -0.00000040       1.74931581       8.71550131        0      -0.00005934      -0.00032341      -0.00102847
Ti       1.51476072       0.87465481      11.29990014        0      -0.00115413      -0.00132504       0.00509393
O        0.00021930       1.74808569      12.23008024        3       0.00030988       0.00043775       0.07343479
O        1.51533334       0.87482969       7.77753030        1      -0.00008204      -0.00008085       0.00158929
C       -1.51484257       2.62397904      10.00500582        2       0.00001088       0.00055204      -0.00317001
Ti      -1.51496690       4.37338180       8.71638918        0      -0.00008552      -0.00012539      -0.00096511
Ti       0.00011755       3.49790509      11.30030218        0      -0.00085576      -0.00160757       0.00426755
O       -1.51437017       4.37300575      12.23008024        3       0.00048422       0.00034757       0.06539991
O       -0.00000004       3.49906300       7.77776204        1       0.00006002      -0.00005147       0.00115951
C       -3.02993972       5.24815045      10.00570865        2      -0.00001690      -0.00021060      -0.00315640
Ti      -3.02999345       6.99753658       8.71654442        0      -0.00013295       0.00017264      -0.00135678
Ti      -1.51518964       6.12249981      11.30091150        0      -0.00094867       0.00004872       0.00441971
O       -3.02975538       6.99812829      12.23008024        3       0.00057376      -0.00043685       0.06647698
O       -1.51502870       6.12281144       7.77817956        1       0.00003645       0.00003621       0.00101977
C       -4.54494521       7.87234351      10.00519706        2       0.00020564      -0.00045982      -0.00360327
Ti      -4.54504758       9.62157358       8.71566061        0      -0.00016142      -0.00000389      -0.00141382
Ti      -3.03066156       8.74735400      11.30045335        0      -0.00126162       0.00037647       0.00508165
O       -4.54602565       9.62251803      12.23008024        3       0.00004197       0.00045998       0.07881865
O       -3.02974247       8.74668103       7.77786075        1      -0.00003029       0.00002824       0.00144095
C        3.03000369      -0.00004678      10.00499952        2       0.00058783       0.00027368      -0.00330666
Ti       3.03005258       1.74939947       8.71620744        0      -0.00030215      -0.00039241      -0.00086534
Ti       4.54464146       0.87476627      11.30122270        0      -0.00038953      -0.00056818       0.00413390
O        3.02958579       1.74915467      12.23008024        3       0.00049541       0.00102741       0.07365354
O        4.54534601       0.87482815       7.77834230        1      -0.00011994      -0.00003604       0.00080859
C        1.51496363       2.62403359      10.00489536        2       0.00041903       0.00079895      -0.00279564
Ti       1.51503176       4.37336987       8.71632689        0      -0.00021643      -0.00020235      -0.00059001
Ti       3.02989399       3.49841080      11.30114118        0      -0.00025049      -0.00106685       0.00346964
O        1.51455558       4.37301242      12.23008024        3       0.00027702       0.00028397       0.06451243
O        3.03035175       3.49896077       7.77833666        1      -0.00009340      -0.00006746       0.00060584
C       -0.00001439       5.24799158      10.00530040        2       0.00041336       0.00004159      -0.00261217
Ti      -0.00000377       6.99745726       8.71668482        0      -0.00018844       0.00006546      -0.00100526
Ti       1.51496998       6.12242009      11.30085039        0       0.00008256       0.00058735       0.00349885
O       -0.00029898       6.99711249      12.23008024        3       0.00048594      -0.00049570       0.05490581
O        1.51502972       6.12285447       7.77819087        1       0.00003317      -0.00005102       0.00077569
C       -1.51507128       7.87218542      10.00538456        2       0.00040445      -0.00010768      -0.00311283
Ti      -1.51503116       9.62158677       8.71643424        0      -0.00028008      -0.00010912      -0.00113133
Ti      -0.00020273       8.74684956      11.30060915        0      -0.00003096       0.00085571       0.00421138
O       -1.51545310       9.62131148      12.23008024        3       0.00060662       0.00014343       0.06316486
O        0.00003227       8.74683274       7.77817877        1      -0.00002512       0.00000444       0.00098428
C        6.06001233      -0.00006757      10.00570567        2      -0.00001469       0.00020824      -0.00287501
Ti       6.06002148       1.74938188       8.71721148        0       0.00013746      -0.00015805      -0.00084297
Ti       7.57536655       0.87464729      11.30126791        0       0.00107995       0.00014863       0.00414242
O        6.06007330       1.74908376      12.23008024        3      -0.00035416       0.00042436       0.07472315
O        7.57476053       0.87478829       7.77843315        1       0.00008058      -0.00000691       0.00080951
C        4.54502311       2.62403742      10.00593279        2      -0.00003612       0.00034351      -0.00244628
Ti       4.54502684       4.37344378       8.71722469        0       0.00013461       0.00008305      -0.00067100
Ti       6.06009383       3.49881561      11.30211169        0       0.00080038      -0.00032942       0.00351456
O        4.54480436       4.37354885      12.23008024        3      -0.00017120      -0.00017996       0.07161231
O        6.06003588       3.49877984       7.77895602        1       0.00002786       0.00003876       0.00035524
C        3.02999344       5.24815210      10.00569566        2       0.00003874      -0.00024505      -0.00218291
Ti       3.02999844       6.99750881       8.71659903        0       0.00019125       0.00031883      -0.00083221
Ti       4.54510124       6.12309103      11.30126573        0       0.00109051       0.00124306       0.00382952
O        3.02959299       6.99786736      12.23008024        3      -0.00044448      -0.00080933       0.06731883
O        4.54502476       6.12255898       7.77850774        1       0.00001744       0.00008021       0.00072493
C        1.51494663       7.87214468      10.00544149        2      -0.00004348      -0.00037440      -0.00270716
Ti       1.51502410       9.62153631       8.71655196        0       0.00020799       0.00011182      -0.00098340
Ti       3.03054066       8.74717751      11.30056572        0       0.00142912       0.00150689       0.00438794
O        1.51507927       9.62112778      12.23008024        3      -0.00028160      -0.00028319       0.06410759
O        3.02974955       8.74669089       7.77798010        1       0.00005265      -0.00002247       0.00113686
C        9.09001306      -0.00010032      10.00520699        2      -0.00050572      -0.00002673      -0.00337195
Ti       9.08997715       1.74937651       8.71637769        0       0.00036845      -0.00018332      -0.00105600
Ti      10.60548859       0.87458002      11.30018998        0       0.00041396      -0.00058406       0.00541423
O        9.09074425       1.74920054      12.23008024        3      -0.00043343       0.00052196       0.07152870
O       10.60464469       0.87478863       7.77763332        1       0.00019177      -0.00007584       0.00157380
C        7.57510993       2.62400812      10.00602263        2      -0.00039055       0.00015430      -0.00289523
Ti       7.57501677       4.37343740       8.71727687        0       0.00026974       0.00015137      -0.00091086
Ti       9.09031233       3.49842987      11.30112652        0       0.00008408      -0.00089048       0.00426044
O        7.57563817       4.37367122      12.23008024        3      -0.00042051      -0.00016717       0.06795628
O        9.08969431       3.49888342       7.77840820        1       0.00012782      -0.00000529       0.00089950
C        6.06004825       5.24824882      10.00612618        2      -0.00033859      -0.00046690      -0.00280613
Ti       6.06000234       6.99747244       8.71652032        0       0.00020078       0.00046849      -0.00119054
Ti       7.57493752       6.12314825      11.30120390        0      -0.00007748       0.00073311       0.00466362
O        6.06020521       6.99840930      12.23008024        3      -0.00034383      -0.00091295       0.07117511
O        7.57495997       6.12251838       7.77849382        1       0.00002311       0.00013761       0.00098261
C        4.54492950       7.87226764      10.00528053        2      -0.00045166      -0.00068407      -0.00330333
Ti       4.54504430       9.62156111       8.71580709        0       0.00027796       0.00018028      -0.00130411
Ti       6.06006519       8.74736353      11.30034375        0       0.00022557       0.00090064       0.00550018
O        4.54596242       9.62220432      12.23008024        3      -0.00034512      -0.00027381       0.08109454
O        6.05995822       8.74646640       7.77772072        1       0.00004574       0.00013487       0.00167498
C        0.04500420       0.06758282      16.45113287       10      -0.00538507      -0.00364198      -0.03174786
C        1.25700525       0.76732200      16.45113287       10       0.00497242       0.00165155      -0.03345779
C       -1.16722539       2.16705239      16.45113287       10       0.00085281      -0.00742599      -0.03305686
C        0.04490488       2.86656703      16.45113287       10       0.00045283       0.00176535      -0.03275623
C       -2.37896129       4.26621111      16.45113287       10       0.00118022      -0.00388568      -0.01837933
C       -1.16701108       4.96581804      16.45113287       10       0.00091288       0.00162173      -0.01936097
C       -3.59078978       6.36536240      16.45113287       10       0.00053412      -0.00546072      -0.01750970
C       -2.37881447       7.06492057      16.45113287       10      -0.00173763       0.00425692      -0.02001147
C       -4.80292752       8.46441951      16.45113287       10      -0.00379805      -0.00271197      -0.03101542
C       -3.59106643       9.16423554      16.45113287       10       0.00551110      -0.00109195      -0.02919799
C        2.46923406       0.06746272      16.45113287       10      -0.00243006       0.00295008      -0.03055591
C        3.68116214       0.76729503      16.45113287       10      -0.00264376      -0.00393741      -0.01857838
C        1.25699600       2.16701945      16.45113287       10      -0.00060920      -0.00392559      -0.03124916
C        2.46896669       2.86665605      16.45113287       10      -0.00108629       0.00141605      -0.01881425
C        0.04500068       4.26625919      16.45113287       10      -0.00137554      -0.00159615      -0.02079713
C        1.25704547       4.96577161      16.45113287       10      -0.00017756       0.00139347      -0.02031601
C       -1.16672253       6.36532965      16.45113287       10      -0.00649242      -0.00297612      -0.01533322
C        0.04516328       7.06494954      16.45113287       10      -0.00208390       0.00107948      -0.02796524
C       -2.37880801       8.46438462      16.45113287       10      -0.00211636       0.00122975      -0.01692099
C       -1.16699470       9.16432866      16.45113287       10       0.00002005      -0.00794400      -0.02132378
C        4.89311078       0.06730666      16.45113287       10      -0.00063735       0.00802502      -0.01896008
C        6.10501392       0.76718636      16.45113287       10      -0.00323732      -0.00416909      -0.02216877
C        3.68086644       2.16677991      16.45113287       10       0.00241448      -0.00044902      -0.02534477
C        4.89284140       2.86660978      16.45113287       10       0.00025648      -0.00195133      -0.01501407
C        2.46888156       4.26615245      16.45113287       10       0.00250105       0.00140298      -0.01995410
C        3.68088741       4.96591238      16.45113287       10      -0.00265214      -0.00143475      -0.02461751
C        1.25708322       6.36529402      16.45113287       10      -0.00030620       0.00186702      -0.01398579
C        2.46910115       7.06500427      16.45113287       10      -0.00248115       0.00047499      -0.02139393
C        0.04497957       8.46434999      16.45113287       10       0.00320742       0.00412562      -0.01370335
C        1.25691626       9.16435514      16.45113287       10       0.00064256      -0.00799159      -0.02200711
C        7.31694528       0.06734116      16.45113287       10      -0.00007597       0.00798905      -0.01795301
C        8.52883729       0.76730888      16.45113287       10       0.00217227      -0.00122128      -0.01839271
C        6.10474596       2.16666754      16.45113287       10       0.00205172      -0.00115346      -0.02504247
C        7.31667280       2.86651454      16.45113287       10       0.00641683       0.00295453      -0.01520138
C        4.89280959       4.26614419      16.45113287       10       0.00004901      -0.00140968      -0.02676520
C        6.10492499       4.96578259      16.45113287       10       0.00131956       0.00169015      -0.01524698
C        3.68093669       6.36537163      16.45113287       10       0.00096117      -0.00155599      -0.01722087
C        4.89294394       7.06496944      16.45113287       10       0.00053897       0.00400390      -0.01681034
C        2.46874264       8.46440162      16.45113287       10       0.00246103       0.00383325      -0.01189639
C        3.68086334       9.16428533      16.45113287       10       0.00237546      -0.00301601      -0.02477815
C        9.74082374       0.06751727      16.45113287       10      -0.00567369       0.00109144      -0.02972824
C       10.95286649       0.76735225      16.45113287       10       0.00370643       0.00258897      -0.03045114
C        8.52879655       2.16682337      16.45113287       10       0.00171795      -0.00411698      -0.02498625
C        9.74081649       2.86666323      16.45113287       10      -0.00054380       0.00547410      -0.01817155
C        7.31702623       4.26610665      16.45113287       10      -0.00088610      -0.00157978      -0.02871602
C        8.52908312       4.96581955      16.45113287       10      -0.00118485       0.00396748      -0.02737669
C        6.10501841       6.36537220      16.45113287       10      -0.00050943      -0.00178156      -0.02470868
C        7.31718404       7.06488239      16.45113287       10      -0.00094830       0.00753531      -0.01728303
C        4.89287190       8.46444413      16.45113287       10      -0.00512032      -0.00180366      -0.02802444
C        6.10490193       9.16417310      16.45113287       10       0.00523958       0.00360760      -0.02751967
