132
Lattice="12.12 0.0 0.0 -6.06 10.496227893867395 0.0 0.0 0.0 40.0" Properties=species:S:1:pos:R:3:tags:I:1:forces:R:3 energy=-1209.968290121839 stress="0.0028163968447075137 -2.452009968167052e-06 3.3980746702143463e-06 -2.452009968167052e-06 0.0028103167192437477 -5.968600704629164e-06 3.3980746702143463e-06 -5.968600704629164e-06 0.0022781915581592386" pbc="T T F"
C        0.00570812      -0.00184407       9.99674219        2       0.00040650      -0.00267832       0.00139286
Ti       0.00288027       1.74936659       8.69072116        0       0.00035831      -0.00008313      -0.00171318
Ti       1.51641831       0.87567306      11.30516503        0       0.00050941      -0.00070745       0.00035227
O        0.00356272       1.74668086      12.23159545        3      -0.00027499       0.00081391      -0.00243660
O        1.51519399       0.87668132       7.76741428        1       0.00010984      -0.00024047       0.00199957
C       -1.51313050       2.62507929      10.01344860        2       0.00060514      -0.00109325       0.00117947
Ti      -1.51371404       4.37695113       8.69730355        0       0.00005307      -0.00177234      -0.00343915
Ti      -0.00163547       3.49714223      11.31421196        0      -0.00026248      -0.00007727      -0.00280914
O       -1.51146029       4.37653245      12.23159545        3      -0.00133138      -0.00478363      -0.13311174
O       -0.00157166       3.50038072       7.77379369        1      -0.00019799      -0.00053120       0.00222616
C       -3.02850017       5.25090275      10.00904667        2       0.00023901       0.00131188       0.00171446
Ti      -3.02981333       6.99996376       8.69569834        0       0.00032195       0.00089711      -0.00432878
Ti      -1.51325617       6.12143734      11.31227120        0       0.00122498      -0.00185592       0.00054491
O       -3.02959005       6.99992352      12.23159545        3       0.00153094       0.00056859       0.00362080
O       -1.51518989       6.12268138       7.77322535        1       0.00046505      -0.00209543       0.00243840
C       -4.54406240       7.87449965      10.00193931        2       0.00004986      -0.00150376       0.00138860
Ti      -4.54432681       9.62153057       8.68945232        0       0.00129322      -0.00119360      -0.00295749
Ti      -3.02932545       8.74874001      11.30415273        0      -0.00030839      -0.00070606       0.00026717
O       -4.54358393       9.62117603      12.23159545        3       0.00032791       0.00001711      -0.00020323
O       -3.02968190       8.74534719       7.76645060        1       0.00056948      -0.00094482       0.00052018
C        3.03017380       0.00037971      10.00026292        2       0.00086592      -0.00031157       0.00060950
Ti       3.03068653       1.75225543       8.69315606        0       0.00078539      -0.00194459      -0.00407546
Ti       4.54648425       0.87522765      11.30375835        0      -0.00029557      -0.00075519       0.00069016
O        3.03111545       1.74903169      12.23159545        3       0.00102513      -0.00159015      -0.01100421
O        4.54605414       0.87697199       7.76736509        1       0.00052873      -0.00145281       0.00067418
C        1.51767070       2.62339695      10.00003967        2       0.00238288      -0.00078978       0.00146879
Ti       1.51561503       4.37457996       8.69593098        0       0.00017372       0.00019110      -0.00293126
Ti       3.02955784       3.49785866      11.30638624        0       0.00124245      -0.00038367       0.00083713
O        1.51453012       4.37166555      12.23159545        3       0.00118937       0.00099271      -0.00204725
O        3.03076123       3.50180041       7.77008152        1      -0.00004541      -0.00090115       0.00169365
C        0.00148024       5.25047594      10.00433952        2       0.00169583       0.00124656       0.00108525
Ti       0.00084049       6.99895516       8.69451236        0       0.00144459      -0.00053735      -0.00297060
Ti       1.51608974       6.12289100      11.30853094        0       0.00024179       0.00029762       0.00000589
O        0.00191197       6.99966777      12.23159545        3       0.00076119       0.00190269      -0.01838611
O        1.51522451       6.12316413       7.77071305        1       0.00103587      -0.00034378       0.00106995
C       -1.51394420       7.87521936      10.00114414        2       0.00065908      -0.00114035       0.00208217
Ti      -1.51549807       9.62210874       8.69018476        0      -0.00002865      -0.00134747      -0.00482300
Ti       0.00269197       8.75012817      11.30589820        0       0.00188390      -0.00078348       0.00002768
O       -1.51432389       9.62365191      12.23159545        3       0.00068223      -0.00023298      -0.02754602
O        0.00027571       8.74640748       7.76652903        1       0.00053408      -0.00046590       0.00062621
C        6.05674787      -0.00241319       9.99683634        2       0.00002344      -0.00117288       0.00085533
Ti       6.05883346       1.74875493       8.69285727        0      -0.00161845      -0.00164684      -0.00287092
Ti       7.57745557       0.87628061      11.29614963        0       0.00229137       0.00054430       0.00227930
O        6.06067793       1.74601357      12.23159545        3       0.00105610      -0.00245338      -0.03279337
O        7.57685755       0.87783294       7.77091197        1       0.00165178       0.00028549       0.00506261
C        4.54482513       2.62394476      10.00233352        2       0.00175177      -0.00085781       0.00205515
Ti       4.54581875       4.37496690       8.69535420        0      -0.00012167       0.00074275      -0.00178635
Ti       6.06123312       3.49656248      11.31499132        0       0.00061057      -0.00074327       0.00112256
O        4.54430198       4.37314382      12.23159545        3       0.00208180       0.00045793      -0.04017659
O        6.06274764       3.50016336       7.77424175        1       0.00152384      -0.00104111       0.00267164
C        3.03055352       5.24975777      10.00333247        2       0.00120616       0.00035118       0.00102798
Ti       3.03039904       6.99852557       8.69289187        0       0.00179760      -0.00094498      -0.00229476
Ti       4.54518728       6.12323900      11.30649362        0       0.00230040      -0.00084253       0.00174678
O        3.03167749       7.00061032      12.23159545        3       0.00214135      -0.00081176      -0.02170607
O        4.54566897       6.12325100       7.77013022        1       0.00000797      -0.00109334       0.00188527
C        1.51560132       7.87404879      10.00136303        2       0.00156574      -0.00013646       0.00092529
Ti       1.51355130       9.62158669       8.68869356        0       0.00087992      -0.00171445      -0.00103565
Ti       3.03203647       8.75088439      11.30495948        0      -0.00072200      -0.00050876       0.00094153
O        1.51621978       9.62436097      12.23159545        3       0.00064129       0.00125766      -0.02082193
O        3.03077354       8.74802879       7.76816919        1      -0.00040928      -0.00106756       0.00235760
C        9.09054301      -0.00096530      10.00084259        2       0.00023334      -0.00126613       0.00265518
Ti       9.09068973       1.74949000       8.69745403        0       0.00112087       0.00102226      -0.00394595
Ti      10.60996155       0.87420990      11.28729978        0       0.00099063      -0.00133225      -0.00097005
O        9.09512913       1.74018793      12.23159545        3       0.00412681       0.00348606       0.04953838
O       10.60482898       0.87830310       7.76996864        1      -0.00032536       0.00100742       0.00471590
C        7.57617418       2.62355666      10.01014255        2      -0.00061111      -0.00058832       0.00214673
Ti       7.57511878       4.37555422       8.69908829        0       0.00174041      -0.00124942      -0.00443255
Ti       9.09487789       3.49908224      11.31283791        0      -0.00180694       0.00269158      -0.00789652
O        7.57373720       4.37498914      12.23159545        3      -0.00170316       0.00130224      -0.06592328
O        9.09109233       3.49995286       7.77899353        1       0.00094478      -0.00058384      -0.00187205
C        6.05979004       5.24919589      10.00493040        2      -0.00116058       0.00024848      -0.00084076
Ti       6.06019089       6.99788511       8.69562000        0      -0.00103500      -0.00071230      -0.00134066
Ti       7.57694151       6.12235387      11.31576062        0      -0.00004711       0.00118268      -0.00092736
O        6.06018109       7.00030413      12.23159545        3      -0.00020162      -0.00081387      -0.00914871
O        7.57639060       6.12196109       7.77391555        1       0.00081557      -0.00222137       0.00135739
C        4.54579409       7.87375645      10.00086818        2      -0.00002814      -0.00075528       0.00144849
Ti       4.54672485       9.62241183       8.68961106        0      -0.00022682      -0.00110999      -0.00145664
Ti       6.05917437       8.74902838      11.30753306        0       0.00006402      -0.00033778      -0.00022236
O        4.54749650       9.62392885      12.23159545        3      -0.00079143      -0.00175035       0.00376191
O        6.06041916       8.74596890       7.76747511        1       0.00001147      -0.00023056       0.00254250
C        0.05967463       0.07179250      16.71092741       10      -0.00725564      -0.00094085       0.01950519
C        1.26530299       0.77606255      16.71931564       10      -0.00141525       0.00126160       0.00708256
C       -1.13368848       2.16019094      16.68655674       10      -0.00065993       0.00308984       0.38430341
C        0.05355500       2.87379345      16.69419548       10       0.00120914       0.00132520       0.04582467
C       -2.37310560       4.31448500      16.68655119       10      -0.00208590       0.00177056       0.62975408
C       -1.16191435       4.98323844      16.69419292       10      -0.00038875       0.00119617       0.01900688
C       -3.58644731       6.38755007      16.71092686       10      -0.00397683       0.00209519       0.00180052
C       -2.37448311       7.08043916      16.71931544       10      -0.00233315       0.00254875       0.01260747
C       -4.79704577       8.47619377      16.70903447       10      -0.00466209       0.00120770       0.02012126
C       -3.58574162       9.17563408      16.72032413       10       0.00171067       0.00469255       0.00597882
C        2.47671003       0.07650759      16.72134915       10      -0.00335453      -0.00063774       0.02747946
C        3.68526223       0.77742203      16.72032404       10      -0.00306104       0.00092363       0.01000977
C        1.26958922       2.17204604      16.71092762       10      -0.00052951      -0.00073017       0.02500386
C        2.47535864       2.87637357      16.70186749       10      -0.00134811       0.00141738       0.01590936
C        0.05388584       4.27853416      16.66806760       10      -0.00174752       0.00054313       0.01099901
C        1.26146882       4.97530064      16.67973755       10      -0.00234413       0.00013690      -0.00562454
C       -1.16123825       6.38711470      16.71092686       10      -0.00267174       0.00008689      -0.00053179
C        0.05085199       7.07810620      16.70186759       10      -0.00194560       0.00129438       0.02300273
C       -2.37425841       8.47912758      16.72134936       10      -0.00216814       0.00059275       0.02556934
C       -1.16330462       9.17594846      16.72032413       10      -0.00248590       0.00150205       0.00420993
C        4.89380294       0.07623107      16.72134915       10      -0.00103307      -0.00115396       0.02051157
C        6.10533830       0.77641677      16.71931564       10       0.00060629      -0.00040527       0.03232803
C        3.68464912       2.17575764      16.70903434       10      -0.00017174       0.00155163       0.01360558
C        4.89467500       2.87679510      16.70186749       10       0.00031454       0.00098633       0.02287563
C        2.47361616       4.27495468      16.68798399       10      -0.00164523       0.00117307       0.00590849
C        3.68603509       4.97656774      16.68519613       10      -0.00069081      -0.00022437       0.01384653
C        1.26084972       6.37668218      16.68798389       10      -0.00195992      -0.00118046       0.00578683
C        2.47465273       7.07551863      16.68519602       10      -0.00210562      -0.00022561       0.00843270
C        0.04854616       8.47559511      16.70903447       10      -0.00123450       0.00110314       0.00264299
C        1.26036810       9.17271118      16.70186734       10      -0.00086991       0.00251258       0.03104594
C        7.31116982       0.07122617      16.71092741       10       0.00217656      -0.00013793       0.00296663
C        8.52626870       0.77414350      16.69419529       10       0.00183333       0.00061665       0.05136039
C        6.10008858       2.17172983      16.71092762       10       0.00131014      -0.00028496       0.02296754
C        7.31652281       2.87403249      16.69419548       10       0.00113406       0.00172141       0.04386702
C        4.89683084       4.27553939      16.68798399       10       0.00012152      -0.00035887       0.02092873
C        6.11051978       4.97652172      16.67973755       10       0.00013740       0.00000734       0.00500528
C        3.68558422       6.37664827      16.68211813       10      -0.00045948       0.00000382      -0.00702525
C        4.89800365       7.07601524      16.68519602       10      -0.00048802       0.00188155       0.00723872
C        2.47225155       8.47561189      16.68798372       10       0.00012861       0.00071938       0.02129956
C        3.68580129       9.17511404      16.67973714       10       0.00068217       0.00257943      -0.00818208
C        9.74580906       0.07282306      16.66806755       10      -0.00173071      -0.00168769      -0.02363272
C       10.96430802       0.77465406      16.69419529       10       0.00381618       0.00292757       0.05042622
C        8.50256590       2.15924953      16.68655674       10       0.00003604      -0.00178058       0.37208299
C        9.74293801       2.87485813      16.44219748       10       0.00024996      -0.00190925      -1.79157218
C        7.31816592       4.28000618      16.66806760       10       0.00040772      -0.00001975       0.01668806
C        8.53370539       4.98421596      16.69419292       10       0.00298644      -0.00110452       0.04747304
C        6.11074229       6.37804469      16.68798389       10      -0.00258483      -0.00012114       0.00553520
C        7.32081625       7.07875257      16.70186759       10      -0.00031212      -0.00147082       0.01193149
C        4.89932874       8.47587384      16.68798372       10      -0.00103485       0.00021333       0.02509327
C        6.11102121       9.17266190      16.70186734       10       0.00482843       0.00322884       0.01580136
O        9.75028147       2.97968095      14.90787261       11      -0.00437356       0.00839296       0.00260464
H        9.62556883       2.10768009      14.48369730       12      -0.00178334      -0.00251566      -0.00422141
