132
Lattice="12.12 0.0 0.0 -6.06 10.496227893867395 0.0 0.0 0.0 40.0" Properties=species:S:1:pos:R:3:tags:I:1:forces:R:3 energy=-1210.4565788291995 stress="0.0028445019735881746 -1.9324962223300766e-06 -3.7035369839854832e-06 -1.9324962223300766e-06 0.0028229688098500958 -7.561547079726582e-06 -3.7035369839854832e-06 -7.561547079726582e-06 0.002713428292730978" pbc="T T F"
C        0.00035887      -0.00199660      10.00367333        2      -0.00111300      -0.00132739      -0.00129371
Ti       0.00302586       1.75007620       8.71846933        0      -0.00138456      -0.00046841       0.00243628
Ti       1.51334565       0.87726086      11.30970032        0      -0.00021218       0.00033082       0.00294085
O        0.00071555       1.74315815      12.23008024        3      -0.00148402       0.00042576      -0.19117614
O        1.51349187       0.87583998       7.77993356        1      -0.00200757      -0.00086903      -0.00163555
C       -1.51683461       2.62650666      10.01947384        2      -0.00001514      -0.00015962      -0.00472240
Ti      -1.51139399       4.37320114       8.72207999        0      -0.00021840      -0.00148960      -0.00131467
Ti      -0.00507736       3.50238101      11.32239271        0      -0.00128322      -0.00272120       0.00227643
O       -1.48627860       4.41776293      12.23008024        3      -0.00011431      -0.00261358      -0.71923879
O       -0.00199063       3.49728055       7.78245566        1      -0.00110378      -0.00199786       0.00035297
C       -3.02862136       5.24176809      10.01488198        2       0.00167166       0.00105018       0.00059240
Ti      -3.02795743       6.99909142       8.71842802        0      -0.00228750      -0.00153365       0.00096825
Ti      -1.50987427       6.12617407      11.31097511        0      -0.00143987      -0.00170765       0.00266020
O       -3.03155677       7.00421726      12.23008024        3       0.00077487      -0.00170698      -0.12394542
O       -1.51626457       6.11945785       7.78135084        1      -0.00151589      -0.00134537       0.00141532
C       -4.54363009       7.87181949      10.00339129        2      -0.00110204       0.00012467      -0.00032388
Ti      -4.54351481       9.62118250       8.71717013        0      -0.00255651      -0.00177473      -0.00216863
Ti      -3.03058362       8.74858467      11.30305651        0      -0.00006914       0.00126192       0.00297528
O       -4.54569981       9.62133866      12.23008024        3      -0.00061938      -0.00072276      -0.14565590
O       -3.03098067       8.74448098       7.77636083        1       0.00115352      -0.00500154       0.00010095
C        3.03039187      -0.00041234      10.00179241        2       0.00014721      -0.00086174      -0.00267101
Ti       3.03091239       1.74879218       8.71636768        0       0.00113799      -0.00266310      -0.00166365
Ti       4.54191956       0.87466017      11.30205242        0      -0.00130200      -0.00055504       0.00286951
O        3.03035997       1.74822187      12.23008024        3       0.00096906       0.00050033      -0.14211447
O        4.54562425       0.87656044       7.77583659        1       0.00065543      -0.00031936       0.00061059
C        1.51554901       2.62363968      10.00750964        2       0.00070079       0.00024033      -0.00249173
Ti       1.51581063       4.37311002       8.71889224        0       0.00042614      -0.00009371       0.00022868
Ti       3.03002407       3.49839777      11.30171384        0      -0.00119324       0.00000232       0.00059596
O        1.52123505       4.37603915      12.23008024        3       0.00028717      -0.00070401      -0.12786153
O        3.02994562       3.49910412       7.77867313        1       0.00067138      -0.00205260       0.00059223
C        0.00378466       5.25019153      10.00436057        2       0.00014503       0.00137510       0.00120700
Ti       0.00094407       6.99740492       8.71488287        0       0.00103937       0.00025153       0.00077428
Ti       1.51810328       6.12437827      11.30188638        0       0.00117987      -0.00049186       0.00108772
O        0.00635626       7.00338799      12.23008024        3      -0.00115582      -0.00040298      -0.11244697
O        1.51586467       6.12066535       7.77739242        1       0.00027992       0.00094608      -0.00061471
C       -1.51476712       7.87633522      10.00004406        2       0.00051158       0.00016282       0.00133439
Ti      -1.51440137       9.62071281       8.71250005        0      -0.00112563       0.00021267      -0.00187429
Ti      -0.00043486       8.74718573      11.30408555        0      -0.00093970      -0.00335951       0.00075639
O       -1.51583759       9.62133444      12.23008024        3       0.00152199      -0.00010463      -0.16639172
O        0.00026902       8.74503409       7.77418135        1       0.00024360      -0.00047955       0.00056985
C        6.05714896      -0.00289188       9.99801942        2      -0.00178238      -0.00175153      -0.00039762
Ti       6.06001284       1.74874862       8.71290802        0       0.00086231       0.00026197       0.00216455
Ti       7.55884248       0.86067138      11.28041489        0       0.00057232      -0.00226294       0.00131657
O        6.05747427       1.74558460      12.23008024        3      -0.00093041      -0.00016327      -0.15007874
O        7.57783857       0.87768147       7.77681269        1       0.00054482       0.00165823       0.00058711
C        4.54585755       2.62275541      10.00302722        2      -0.00030169      -0.00076647       0.00115377
Ti       4.54582930       4.37254801       8.71557698        0      -0.00025820      -0.00058301       0.00184091
Ti       6.06213518       3.49597246      11.30863960        0       0.00201980       0.00090603       0.00240525
O        4.54539510       4.37283066      12.23008024        3      -0.00062887      -0.00144837      -0.13636010
O        6.06400736       3.49867540       7.77814143        1       0.00049457      -0.00274544       0.00232540
C        3.03167803       5.24710653      10.00379061        2      -0.00044344      -0.00062572      -0.00218755
Ti       3.03156127       6.99547798       8.71375673        0      -0.00087545       0.00025230      -0.00167775
Ti       4.54529601       6.12081970      11.29999869        0       0.00085193      -0.00018513       0.00217380
O        3.03216290       6.99674832      12.23008024        3      -0.00151790      -0.00053507      -0.15322454
O        4.54738595       6.12131190       7.77700340        1      -0.00097395      -0.00191101       0.00029537
C        1.51613674       7.87111418      10.00112613        2      -0.00008270      -0.00043603      -0.00163233
Ti       1.51729351       9.61993057       8.70974200        0       0.00125350      -0.00204324      -0.00064553
Ti       3.02997011       8.74466249      11.30527312        0       0.00119003       0.00013153       0.00022039
O        1.51432008       9.61379010      12.23008024        3      -0.00064417      -0.00119519      -0.17049129
O        3.03196591       8.74468391       7.77331603        1      -0.00228998      -0.00036733       0.00073660
C        9.09102949      -0.00595038       9.99511556        2      -0.00078850      -0.00362037      -0.00152456
Ti       9.09097975       1.74946869       8.72123162        0      -0.00026207       0.00056926       0.00108406
Ti      10.61448166       0.85999161      11.27510427        0       0.00142160      -0.00344625       0.00242078
O        9.06378782       1.68035690      12.23008024        3      -0.00000940       0.00134822      -0.35688074
O       10.60661744       0.87846296       7.77804611        1       0.00129339       0.00117438       0.00201219
C        7.58137136       2.62649637      10.00978596        2      -0.00132685      -0.00113812      -0.00359199
Ti       7.57520713       4.37204223       8.71483964        0       0.00059891      -0.00260945      -0.00095628
Ti       9.09052424       3.52237022      11.27975484        0      -0.00177888       0.00113431       0.00058939
O        7.57151617       4.37374892      12.23008024        3       0.00112611      -0.00112722      -0.13407287
O        9.09336694       3.49874970       7.77881393        1       0.00072921      -0.00192588      -0.00094597
C        6.06155412       5.24738695      10.00477024        2      -0.00136171      -0.00039782      -0.00144568
Ti       6.06218850       6.99718629       8.71578049        0      -0.00022185      -0.00223195       0.00014812
Ti       7.57381684       6.12132799      11.30896860        0       0.00092230      -0.00333293       0.00219086
O        6.05991167       6.99740161      12.23008024        3       0.00278183       0.00098729      -0.13514592
O        7.57907235       6.12039665       7.78029530        1       0.00000432      -0.00064421       0.00163618
C        4.54661474       7.87022459      10.00232263        2      -0.00007740      -0.00036851      -0.00211741
Ti       4.54486538       9.61986517       8.70881421        0      -0.00096673      -0.00048378       0.00019503
Ti       6.05922155       8.74448674      11.30648217        0       0.00125537      -0.00026884       0.00056284
O        4.54382317       9.61464291      12.23008024        3      -0.00013534       0.00040324      -0.17755481
O        6.06191951       8.74573888       7.77661470        1       0.00028782      -0.00106194       0.00025796
C        0.05860312       0.07437746      15.85678062       10       0.00272462       0.00612393       0.03146665
C        1.26725562       0.77732577      15.86516885       10      -0.00358743       0.00166684       0.08569892
C       -1.13546452       2.16183763      15.83240995       10       0.00031706       0.00442138       0.63597957
C        0.05490426       2.87539877      15.84004869       10       0.00002167       0.00144326       0.10913949
C       -2.37500911       4.30973155      15.83240440       10       0.00063684       0.00149626       0.79061060
C       -1.16267185       4.98263370      15.84004613       10       0.00148926       0.00121385       0.05274485
C       -3.58562452       6.38667820      15.85678007       10       0.00077548      -0.00007898       0.02965025
C       -2.37280232       7.08159537      15.86516865       10      -0.00007494       0.00059120       0.05206689
C       -4.79597332       8.47684580      15.85488768       10       0.00342194       0.00080775       0.04819354
C       -3.58406044       9.17667852      15.86617734       10      -0.00276774      -0.00116003       0.04312005
C        2.47808750       0.07876848      15.86720236       10      -0.00072419       0.00120960       0.04030405
C        3.68799716       0.77951066      15.86617725       10       0.00052896       0.00139216       0.04221238
C        1.27061749       2.17563854      15.85678083       10      -0.00043370       0.00278654       0.03498223
C        2.47730995       2.87865708      15.84772070       10      -0.00027417       0.00264045       0.04498632
C        0.05068988       4.27817167      15.81392081       10       0.00002187      -0.00052699       0.21499520
C        1.26142829       4.97690658      15.82559076       10       0.00011604       0.00225670      -0.01857603
C       -1.16039383       6.38559448      15.85678007       10      -0.00114476      -0.00080062       0.05837062
C        0.05189871       7.07865871      15.84772080       10      -0.00077800       0.00018456       0.03468208
C       -2.37228520       8.47900645      15.86720257       10       0.00127110      -0.00023580       0.05447072
C       -1.16041090       9.17673195      15.86617734       10       0.00227159       0.00072584       0.03212943
C        4.89814578       0.07881251      15.86720236       10       0.00014152       0.00083593       0.05135540
C        6.10873262       0.77835050      15.86516885       10       0.00153251       0.00270555       0.05762851
C        3.68806644       2.17879836      15.85488755       10      -0.00003260       0.00238876       0.04682698
C        4.89853083       2.87889179      15.84772070       10       0.00210175       0.00211617       0.04314534
C        2.47507130       4.27797135      15.83383720       10      -0.00188411       0.00073679       0.03312962
C        3.68711362       4.97759971      15.83104934       10       0.00020468       0.00054197       0.05469857
C        1.26245451       6.37720751      15.83383710       10      -0.00299831       0.00078842       0.05700922
C        2.47455600       7.07684236      15.83104923       10      -0.00001580      -0.00032416       0.05103459
C        0.05114395       8.47702523      15.85488768       10       0.00020021      -0.00104445       0.09211121
C        1.26271849       9.17560802      15.84772055       10       0.00100568       0.00271293       0.02399029
C        7.31773148       0.07618190      15.85678062       10       0.00030122       0.00223912       0.05664848
C        8.53200770       0.77942065      15.84004850       10       0.00056734       0.00207147       0.07560377
C        6.10572656       2.17655626      15.85678083       10       0.00186725       0.00321612       0.03818999
C        7.32249487       2.87624726      15.84004869       10       0.00109912       0.00057070       0.09260368
C        4.89939746       4.27808980      15.83383720       10       0.00129256       0.00094875       0.03584001
C        6.11281868       4.97726190      15.82559076       10      -0.00002300       0.00249435       0.00321278
C        3.68679635       6.37720155      15.82797134       10      -0.00013910      -0.00017265       0.03200778
C        4.89919788       7.07707241      15.83104923       10       0.00020329       0.00026796       0.06190583
C        2.47472685       8.47648603      15.83383693       10      -0.00052457       0.00029025       0.04182640
C        3.68710463       9.17768090      15.82559035       10       0.00014170       0.00302842       0.00123470
C        9.74707331       0.07934336      15.81392076       10       0.00286295       0.00473686       0.18759614
C       10.96403857       0.77631100      15.84004850       10      -0.00276759       0.00148601       0.11862903
C        8.51188852       2.16532239      15.83240995       10       0.00086459       0.00285493       0.46166788
C        9.74702455       2.87728626      15.58805069       10       0.00053288      -0.00179879      -1.47746880
C        7.32325700       4.27904156      15.81392081       10       0.00145649      -0.00002194       0.20890763
C        8.53576919       4.98385402      15.84004613       10       0.00049391       0.00090926       0.10148396
C        6.11129509       6.37769274      15.83383710       10       0.00230661       0.00014688       0.02252348
C        7.32225361       7.07926897      15.84772080       10       0.00121666      -0.00036268       0.04652357
C        4.89945564       8.47636027      15.83383693       10       0.00233167       0.00171501       0.02648906
C        6.11241051       9.17464234      15.84772055       10      -0.00306399      -0.00060030       0.06149917
O        9.85570236       2.94558065      14.12459837       11      -0.00647691       0.00162195       0.00384969
H        9.44468509       2.19185362      13.59729474       12       0.00156394      -0.00176432      -0.00205764
