130
Lattice="12.12 0.0 0.0 -6.06 10.496227893867395 0.0 0.0 0.0 40.0" Properties=species:S:1:pos:R:3:tags:I:1:forces:R:3 energy=-1201.7610951140007 stress="0.0028958129763828676 -1.4362052633975036e-07 1.6707029719376754e-07 -1.4362052633975036e-07 0.002896047361860276 1.1900916454254503e-07 1.6707029719376754e-07 1.1900916454254503e-07 0.0023428833292494467" pbc="T T F"
C        0.00002016       0.00001931      10.00329065        2      -0.00001456      -0.00006895       0.00488420
Ti      -0.00000695       1.74943505       8.71268498        0       0.00004395       0.00009461       0.00497249
Ti       1.51507913       0.87470595      11.29544245        0       0.00026589       0.00044542       0.00135349
O       -0.00011849       1.74988845      12.23008024        3      -0.00013734      -0.00008820       0.10324562
O        1.51494399       0.87466062       7.77363462        1      -0.00003431      -0.00000465       0.00454292
C       -1.51498764       2.62405649      10.00295792        2      -0.00004793      -0.00011479       0.00465449
Ti      -1.51501949       4.37347574       8.71277475        0       0.00006081      -0.00000660       0.00469846
Ti      -0.00001157       3.49872602      11.29507220        0       0.00030912       0.00052478       0.00165472
O       -1.51538831       4.37349335      12.23008024        3      -0.00011556      -0.00000677       0.09007769
O        0.00002150       3.49869624       7.77362180        1       0.00002569       0.00001896       0.00458878
C       -3.02993778       5.24816004      10.00287959        2      -0.00003607       0.00003329       0.00447539
Ti      -3.02998546       6.99745302       8.71275237        0       0.00006134      -0.00004125       0.00474414
Ti      -1.51523171       6.12270224      11.29556314        0       0.00038661       0.00002909       0.00166936
O       -3.03026209       6.99738180      12.23008024        3      -0.00009686       0.00007713       0.09258597
O       -1.51496317       6.12280710       7.77360813        1       0.00006774       0.00005319       0.00456204
C       -4.54501055       7.87214637      10.00287824        2      -0.00001096       0.00013455       0.00479848
Ti      -4.54494924       9.62148558       8.71267380        0       0.00001355       0.00007888       0.00498571
Ti      -3.03008942       8.74685856      11.29507430        0       0.00033206      -0.00004262       0.00119557
O       -4.54472035       9.62111070      12.23008024        3      -0.00004553       0.00000479       0.09801285
O       -3.03002433       8.74689775       7.77359857        1       0.00002889       0.00000154       0.00447295
C        3.02994403       0.00003019      10.00300167        2      -0.00011813      -0.00014471       0.00467272
Ti       3.03005868       1.74940085       8.71276999        0       0.00003401       0.00008344       0.00465049
Ti       4.54503810       0.87479764      11.29543423        0       0.00008196       0.00022369       0.00158991
O        3.03045409       1.74965643      12.23008024        3      -0.00006328      -0.00015046       0.08900674
O        4.54496083       0.87465034       7.77359854        1      -0.00003609      -0.00004513       0.00445937
C        1.51500365       2.62402382      10.00303272        2      -0.00014406      -0.00018464       0.00447809
Ti       1.51503212       4.37348714       8.71281078        0       0.00005806       0.00001252       0.00451026
Ti       3.03017017       3.49871639      11.29537375        0       0.00000473       0.00032033       0.00195262
O        1.51548957       4.37351637      12.23008024        3      -0.00008616      -0.00001148       0.08996633
O        3.02995148       3.49872999       7.77360587        1      -0.00006225      -0.00003584       0.00451057
C        0.00003268       5.24818258      10.00299110        2      -0.00010873       0.00000727       0.00443687
Ti       0.00000930       6.99748983       8.71289361        0       0.00009796      -0.00000333       0.00474815
Ti       1.51528654       6.12269847      11.29560187        0       0.00014500      -0.00013771       0.00190781
O        0.00013673       6.99752863      12.23008024        3      -0.00001759       0.00010048       0.10871649
O        1.51498455       6.12279663       7.77361383        1      -0.00000429       0.00003935       0.00463286
C       -1.51492911       7.87216522      10.00294781        2      -0.00016131       0.00007653       0.00462921
Ti      -1.51494436       9.62153653       8.71278477        0       0.00006497       0.00002813       0.00471476
Ti       0.00001535       8.74712839      11.29559555        0       0.00013065      -0.00013687       0.00172340
O       -1.51484569       9.62178472      12.23008024        3      -0.00011757      -0.00005127       0.09208860
O       -0.00000003       8.74684302       7.77359276        1       0.00001375      -0.00000614       0.00461030
C        6.06001443      -0.00008030      10.00288582        2       0.00003308      -0.00000911       0.00447734
Ti       6.06000194       1.74936810       8.71270746        0      -0.00001168       0.00002309       0.00443649
Ti       7.57499385       0.87484383      11.29538054        0      -0.00030672       0.00002963       0.00148394
O        6.05995459       1.74940837      12.23008024        3       0.00009294      -0.00002861       0.08870072
O        7.57502993       0.87465310       7.77357695        1       0.00006171      -0.00002190       0.00442376
C        4.54501992       2.62404022      10.00280578        2       0.00002192      -0.00013815       0.00419087
Ti       4.54501251       4.37342617       8.71269622        0      -0.00001433      -0.00005823       0.00428962
Ti       6.06001301       3.49869657      11.29491904        0      -0.00035314       0.00006281       0.00173467
O        4.54519993       4.37326419      12.23008024        3       0.00003763       0.00005583       0.08606156
O        6.06000263       3.49873767       7.77349716        1       0.00002003      -0.00004633       0.00428616
C        3.02998189       5.24816180      10.00290119        2       0.00006925       0.00008856       0.00418638
Ti       3.03000165       6.99745379       8.71278536        0      -0.00000154      -0.00002589       0.00451713
Ti       4.54517106       6.12268556      11.29527415        0      -0.00031123      -0.00042678       0.00172032
O        3.03035628       6.99741564      12.23008024        3       0.00017572       0.00017053       0.09415760
O        4.54498545       6.12281267       7.77356967        1       0.00000706       0.00005987       0.00437307
C        1.51498401       7.87216532      10.00293985        2       0.00009749       0.00015888       0.00444470
Ti       1.51496667       9.62154499       8.71277296        0       0.00002963      -0.00001601       0.00471622
Ti       3.03013757       8.74692308      11.29505368        0      -0.00028043      -0.00040127       0.00145901
O        1.51497477       9.62181632      12.23008024        3       0.00011169       0.00006479       0.09310485
O        3.03003369       8.74688058       7.77358942        1       0.00003705       0.00002055       0.00451327
C        9.09004182       0.00002485      10.00294528        2       0.00018268       0.00006226       0.00464745
Ti       9.08995455       1.74939587       8.71274466        0      -0.00002764       0.00003591       0.00480934
Ti      10.60489836       0.87474768      11.29548879        0      -0.00003352       0.00023021       0.00117136
O        9.08963919       1.74969731      12.23008024        3       0.00011112       0.00000483       0.08769768
O       10.60507839       0.87465666       7.77362840        1       0.00004906       0.00002229       0.00450266
C        7.57498145       2.62403031      10.00280072        2       0.00014928      -0.00003214       0.00433148
Ti       7.57498943       4.37342224       8.71266025        0      -0.00004297      -0.00009164       0.00444622
Ti       9.08986894       3.49874304      11.29526997        0      -0.00004396       0.00028085       0.00141333
O        7.57473305       4.37319254      12.23008024        3       0.00003771       0.00004609       0.08561640
O        9.09004646       3.49874217       7.77358035        1       0.00010304      -0.00001339       0.00437184
C        6.05999930       5.24807772      10.00281495        2       0.00015383       0.00013487       0.00421018
Ti       6.06000525       6.99743463       8.71273990        0      -0.00003516      -0.00006842       0.00464269
Ti       7.57493482       6.12266427      11.29522345        0       0.00001827      -0.00033265       0.00128400
O        6.06012166       6.99702648      12.23008024        3       0.00019697       0.00017291       0.08870897
O        7.57502146       6.12281166       7.77356060        1       0.00006485       0.00005977       0.00428476
C        4.54502975       7.87215993      10.00289971        2       0.00026122       0.00023530       0.00461157
Ti       4.54494646       9.62149505       8.71268085        0       0.00000838       0.00003993       0.00497342
Ti       6.06001157       8.74669267      11.29549565        0      -0.00000742      -0.00020821       0.00103217
O        4.54471572       9.62125251      12.23008024        3       0.00020208       0.00006940       0.09706154
O        6.06000574       8.74693637       7.77361834        1       0.00001912       0.00003439       0.00442023
C        0.04517413       0.06749160      16.73534340       10      -0.00213440       0.00024021      -0.02050025
C        1.25725894       0.76725198      16.73534340       10      -0.00859438      -0.00256752      -0.04466812
C       -1.16722481       2.16681189      16.73534340       10       0.00260404       0.00289937      -0.02410546
C        0.04472068       2.86658446      16.73534340       10       0.00253051      -0.00227252      -0.03532907
C       -2.37896806       4.26621040      16.73534340       10      -0.00175613       0.00121097      -0.03950901
C       -1.16690458       4.96580669      16.73534340       10       0.00012857      -0.00072649      -0.04023844
C       -3.59053994       6.36522317      16.73534340       10      -0.00541846       0.00350990      -0.04072041
C       -2.37865063       7.06502267      16.73534340       10      -0.00214193      -0.00248696      -0.03918810
C       -4.80309832       8.46446727      16.73534340       10       0.00439749       0.00161927      -0.02592803
C       -3.59105786       9.16415574      16.73534340       10       0.00042376      -0.00018815      -0.03498838
C        2.46925403       0.06737013      16.73534340       10      -0.00125556      -0.00088581      -0.02868032
C        3.68125463       0.76720772      16.73534340       10      -0.00692947       0.00009204      -0.04297744
C        1.25666074       2.16680556      16.73534340       10       0.00539602       0.00148837      -0.02484049
C        2.46876658       2.86651877      16.73534340       10      -0.00104715       0.00045184      -0.04072665
C        0.04503379       4.26613010      16.73534340       10      -0.00145293      -0.00017488      -0.03184605
C        1.25706887       4.96572397      16.73534340       10      -0.00324167       0.00318734      -0.04200403
C       -1.16655368       6.36530054      16.73534340       10      -0.00415018       0.00218895      -0.02577594
C        0.04535853       7.06498272      16.73534340       10      -0.00238918       0.00135142      -0.03007847
C       -2.37899199       8.46441224      16.73534340       10       0.00335348       0.00133048      -0.03289690
C       -1.16707513       9.16409994      16.73534340       10       0.00233520       0.00388565      -0.04048534
C        4.89331359       0.06736122      16.73534340       10      -0.00374336      -0.00154472      -0.03832547
C        6.10504557       0.76749293      16.73534340       10      -0.00025646      -0.00165656      -0.02127528
C        3.68063585       2.16667375      16.73534340       10       0.00431639       0.00029987      -0.04074066
C        4.89252075       2.86660706      16.73534340       10       0.00497153      -0.00001097      -0.02669684
C        2.46892054       4.26617383      16.73534340       10       0.00087631      -0.00298690      -0.03995391
C        3.68096081       4.96581167      16.73534340       10      -0.00104941       0.00298210      -0.01997689
C        1.25727329       6.36528150      16.73534340       10      -0.00505602       0.00001846      -0.02687197
C        2.46913760       7.06516962      16.73534340       10      -0.00435092      -0.00035296      -0.03801020
C        0.04495160       8.46440707      16.73534340       10       0.00018879       0.00154134      -0.02833675
C        1.25677031       9.16433561      16.73534340       10       0.00368305       0.00140476      -0.03847464
C        7.31700012       0.06762688      16.73534340       10      -0.00239518      -0.00402487      -0.03595727
C        8.52911481       0.76743569      16.73534340       10      -0.00336840      -0.00141639      -0.04318271
C        6.10463649       2.16697418      16.73534340       10       0.00231119      -0.00144179      -0.04086608
C        7.31668826       2.86662547      16.73534340       10       0.00412579      -0.00221647      -0.02335904
C        4.89281791       4.26613755      16.73534340       10       0.00311721      -0.00315229      -0.04189273
C        6.10488876       4.96580924      16.73534340       10       0.00140137       0.00016086      -0.02248784
C        3.68099262       6.36536331      16.73534340       10       0.00098118      -0.00043664      -0.03815954
C        4.89324779       7.06500789      16.73534340       10      -0.00546294      -0.00156701      -0.03999284
C        2.46860824       8.46459414      16.73534340       10       0.00686608      -0.00014463      -0.03297021
C        3.68070866       9.16425330      16.73534340       10       0.00113505       0.00078538      -0.03590262
C        9.74102465       0.06747025      16.73534340       10      -0.00046502       0.00005373      -0.03162659
C       10.95313832       0.76727531      16.73534340       10      -0.00448053      -0.00163324      -0.04366050
C        8.52873734       2.16682768      16.73534340       10       0.00204469       0.00237185      -0.04246432
C        9.74068519       2.86664463      16.73534340       10       0.00537357      -0.00349515      -0.03740615
C        7.31686209       4.26607267      16.73534340       10      -0.00019376       0.00067559      -0.04169024
C        8.52891561       4.96576421      16.73534340       10       0.00177845      -0.00122813      -0.01901776
C        6.10521193       6.36524720      16.73534340       10      -0.00261539       0.00227523      -0.04114231
C        7.31723977       7.06499487      16.73534340       10      -0.00265271      -0.00300041      -0.03734421
C        4.89260878       8.46446946      16.73534340       10       0.00855521       0.00254640      -0.02988851
C        6.10479073       9.16419907      16.73534340       10       0.00205536      -0.00031130      -0.04453489
