131
Lattice="12.12 0.0 0.0 -6.06 10.496227893867395 0.0 0.0 0.0 40.0" Properties=species:S:1:pos:R:3:tags:I:1:forces:R:3 energy=-1205.2322146866863 stress="0.002816755126790472 -4.452794857530292e-06 3.423804919155405e-06 -4.452794857530292e-06 0.0028104825437388066 1.3519685669296666e-06 3.423804919155405e-06 1.3519685669296666e-06 0.0024949538925361802" pbc="T T F"
C       -0.00029584       0.00018898      10.00178121        2      -0.00009737       0.00037383      -0.00047929
Ti       0.00120360       1.74888145       8.69735731        0       0.00073443      -0.00002727       0.00239684
Ti       1.51948666       0.87873293      11.31596021        0       0.00117868      -0.00177168       0.00353157
O        0.00061631       1.74626951      12.23159545        3      -0.00065750       0.00072949      -0.00019203
O        1.51754713       0.87169799       7.77929539        1       0.00123214      -0.00051543       0.00115746
C       -1.51453761       2.62307312      10.00272238        2       0.00067504      -0.00029726      -0.00104916
Ti      -1.51434286       4.37640163       8.69998589        0       0.00020134       0.00028726       0.00197455
Ti      -0.00172028       3.49693437      11.31883617        0       0.00195539       0.00083144      -0.00072941
O       -1.51358002       4.37295104      12.23159545        3       0.00069607      -0.00246661      -0.01130490
O       -0.00043013       3.49876843       7.77396660        1       0.00023598       0.00009579      -0.00086491
C       -3.03047183       5.24452801      10.00284614        2       0.00011662      -0.00122994      -0.00034167
Ti      -3.03238738       6.99363364       8.71460595        0       0.00092131       0.00027423       0.00350836
Ti      -1.51054512       6.12726148      11.31956979        0      -0.00216861       0.00222721       0.00445645
O       -3.03658176       6.97400068      12.23159545        3       0.00076699      -0.00117445      -0.15369815
O       -1.51695629       6.12769838       7.78143667        1      -0.00003849       0.00040928       0.00170410
C       -4.54602792       7.87081652      10.01634838        2       0.00012021      -0.00005843       0.00206018
Ti      -4.54683107       9.62247736       8.71085605        0       0.00032834       0.00037991       0.00344767
Ti      -3.01181871       8.74060676      11.41656499        0       0.00362167      -0.00094139      -0.00395062
O       -4.55501397       9.62824916      12.23159545        3      -0.00185086       0.00170234       0.02307066
O       -3.02835051       8.74607850       7.79993752        1      -0.00007025       0.00037353       0.00244995
C        3.03097445       0.00203208      10.01637853        2       0.00045915       0.00055690       0.00144882
Ti       3.02991141       1.74710297       8.70718359        0       0.00095867       0.00042910       0.00348938
Ti       4.54465632       0.88614038      11.30942995        0       0.00149083      -0.00508117       0.00671192
O        3.02863886       1.75455783      12.23159545        3       0.00067154       0.00059376       0.01444455
O        4.54396210       0.87240043       7.77982775        1       0.00021152      -0.00086121       0.00190364
C        1.51340655       2.62696449      10.00247098        2       0.00091509       0.00079300       0.00014405
Ti       1.51403030       4.37340600       8.69880279        0       0.00073607       0.00096058       0.00227622
Ti       3.02805472       3.49974383      11.31992993        0       0.00058771       0.00031432      -0.00209372
O        1.51241618       4.37160471      12.23159545        3       0.00160078       0.00036486      -0.00952045
O        3.02981239       3.49569555       7.77580563        1       0.00000315      -0.00030635      -0.00134722
C        0.00129007       5.24509334      10.00141721        2       0.00086511      -0.00057244       0.00041575
Ti      -0.00035551       6.99793206       8.70556280        0      -0.00079147       0.00101747       0.00417959
Ti       1.51660529       6.12165430      11.31686665        0      -0.00067420       0.00065808       0.00026723
O        0.01135432       6.99088282      12.23159545        3       0.00139412      -0.00026574      -0.02585467
O        1.51180953       6.12494837       7.77671799        1      -0.00093838       0.00088645      -0.00016981
C       -1.51498889       7.87291067      10.02718876        2       0.00067003      -0.00010114      -0.00026165
Ti      -1.51233082       9.62584463       8.71449396        0       0.00041713      -0.00011465       0.00340824
Ti      -0.00223619       8.74177128      11.31884970        0      -0.00327905       0.00219820       0.00494654
O       -1.49401928       9.64399594      12.23159545        3       0.00155386       0.00040437      -0.21370223
O       -0.00473454       8.74627321       7.78108680        1       0.00002003       0.00068913       0.00181893
C        6.06403277       0.00340085      10.00157067        2       0.00168427       0.00115286      -0.00025769
Ti       6.06007102       1.74887161       8.70035553        0       0.00009391       0.00030439       0.00181245
Ti       7.57559515       0.87395696      11.32174901        0       0.00040393       0.00080268      -0.00208986
O        6.06249060       1.75026640      12.23159545        3       0.00225087       0.00190745       0.00143974
O        7.57482135       0.87447196       7.77598862        1       0.00061936       0.00043502      -0.00143118
C        4.54654177       2.62993468      10.00343715        2       0.00054984       0.00098257      -0.00102667
Ti       4.54461748       4.37378458       8.69441631        0       0.00013003      -0.00007964       0.00293119
Ti       6.06118031       3.49895176      11.32115761        0      -0.00109735       0.00135254      -0.00198377
O        4.54391200       4.37384065      12.23159545        3      -0.00064043       0.00066167      -0.00143667
O        6.06041708       3.49906945       7.77470390        1       0.00080564       0.00004750      -0.00159835
C        3.03017690       5.24797663      10.00427891        2      -0.00000727       0.00030863      -0.00148898
Ti       3.02962899       6.99834438       8.69942693        0      -0.00040553      -0.00068364       0.00236987
Ti       4.54321558       6.12391770      11.32042250        0       0.00052313      -0.00001303      -0.00207239
O        3.02934042       6.99994592      12.23159545        3       0.00057924      -0.00098555      -0.00612595
O        4.54780981       6.12505086       7.77647083        1       0.00040837       0.00051895      -0.00142471
C        1.51816710       7.87278809      10.00171737        2       0.00143546       0.00022216       0.00026652
Ti       1.51308040       9.61997070       8.69965395        0       0.00011339       0.00038943       0.00201028
Ti       3.02998151       8.74936547      11.31988465        0       0.00097072      -0.00158868      -0.00091977
O        1.51548408       9.62147022      12.23159545        3       0.00319895       0.00135545      -0.00691506
O        3.03015396       8.74705405       7.77435063        1       0.00032662       0.00024802      -0.00086018
C        9.09145789       0.00034534      10.00282372        2       0.00106675       0.00011580      -0.00091003
Ti       9.09048003       1.74942833       8.69968423        0       0.00129572      -0.00026927       0.00307875
Ti      10.60760899       0.87359457      11.31344568        0       0.00048278       0.00013586      -0.00168355
O        9.09267936       1.74852863      12.23159545        3       0.00106817      -0.00026840      -0.01827213
O       10.60550142       0.87438436       7.77348880        1       0.00088314      -0.00019419      -0.00151792
C        7.57662279       2.62389429      10.00385100        2       0.00034140       0.00024681      -0.00069556
Ti       7.57560975       4.37393980       8.70074262        0       0.00034271       0.00044211       0.00192545
Ti       9.09134178       3.49951877      11.32215177        0      -0.00002978      -0.00002749      -0.00201777
O        7.57627310       4.37208415      12.23159545        3      -0.00013013      -0.00225724       0.01108067
O        9.09018791       3.49962022       7.77624864        1       0.00037878      -0.00011158      -0.00149687
C        6.05605377       5.24436995      10.00420693        2      -0.00009442      -0.00008249      -0.00083092
Ti       6.06213318       6.99893199       8.70858392        0       0.00012713      -0.00056763       0.00314551
Ti       7.56582029       6.11920150      11.31059759        0       0.00446299       0.00104196       0.00627176
O        6.05522688       6.99626139      12.23159545        3       0.00015174      -0.00016758       0.01762825
O        7.57659386       6.12531778       7.78058025        1       0.00101104       0.00104199       0.00180611
C        4.54187793       7.87233233      10.00380555        2       0.00013573      -0.00060908       0.00012425
Ti       4.54602359       9.62102614       8.69762723        0       0.00067467      -0.00010749       0.00262977
Ti       6.05869741       8.74188018      11.31672926        0       0.00246339       0.00085660       0.00390109
O        4.54803734       9.62370629      12.23159545        3      -0.00064559       0.00066805      -0.00420204
O        6.06369495       8.74609201       7.77970507        1       0.00137024      -0.00034285       0.00122128
C        0.04086616       0.07009951      16.39606261       10      -0.00444320      -0.00140208       0.00122306
C        1.24785790       0.77061279      16.38077056       10       0.00492495       0.00002581       0.04413909
C       -1.16906970       2.16687861      16.40138331       10      -0.00280591       0.00072492      -0.00676184
C        0.04213911       2.86668321      16.38367288       10      -0.00199428      -0.00144757       0.01620225
C       -2.37963284       4.26491901      16.39606261       10      -0.00283698      -0.00163889       0.02200956
C       -1.17029052       4.95978399      16.38077056       10      -0.00122561       0.00074407       0.01319188
C       -3.58716885       6.36778525      16.33295186       10      -0.00075774      -0.00045111       0.07340997
C       -2.38170288       7.04825200      16.29112964       10      -0.00013188       0.00242737      -0.25921731
C       -4.80193208       8.47143588      16.33295186       10      -0.00608307      -0.00125749       0.03608261
C       -3.61064559       9.17562660      16.29112964       10       0.00552125       0.00049577      -0.18013599
C        2.46345391       0.06356836      16.33295186       10       0.00144305      -0.00455638       0.03934720
C        3.67817214       0.76873481      16.30087318       10      -0.00143022      -0.00029681      -0.02437653
C        1.25361652       2.16783838      16.36972759       10      -0.00161673      -0.00176261      -0.00734057
C        2.46519636       2.86596709      16.34781318       10      -0.00262543       0.00100968       0.01594376
C        0.04317066       4.26546857      16.36972759       10      -0.00201643      -0.00061559       0.01353316
C        1.25348077       4.96578372      16.34781318       10      -0.00132475      -0.00024681      -0.00024687
C       -1.17464151       6.36747426      16.33295186       10      -0.00236675       0.00109136       0.10951375
C        0.04342334       7.06574711      16.30087318       10      -0.00100446      -0.00177078      -0.07443623
C       -2.38490609       8.46638979      15.83832398       10       0.00013157       0.00020554       0.32318177
C       -1.15516914       9.17432790      16.29112964       10      -0.00110700      -0.00082156      -0.28550372
C        4.89200702       0.06237322      16.33295186       10      -0.00064029      -0.00092372       0.07259845
C        6.10928826       0.77025055      16.38077056       10      -0.00067272       0.00088528       0.02501200
C        3.67797950       2.16391296      16.33320689       10      -0.00240625       0.00042718      -0.02009548
C        4.89228668       2.86603110      16.34781318       10      -0.00081855       0.00079668       0.01883047
C        2.46626718       4.26711099      16.34513157       10      -0.00136373       0.00089242       0.00226633
C        3.67950635       4.96649099      16.34013080       10      -0.00130150       0.00037974      -0.01832169
C        1.25202135       6.36801573      16.33320689       10      -0.00040561       0.00016568       0.03705579
C        2.46707156       7.06793362      16.34781318       10      -0.00033155       0.00100288      -0.00621341
C        0.03832892       8.46985695      16.33295186       10      -0.00089024      -0.00188633       0.10621749
C        1.25985889       9.16976139      16.38077056       10      -0.00115526       0.00129696       0.00563632
C        7.31700037       0.06834216      16.39606261       10       0.00120775       0.00164177       0.02818279
C        8.53003102       0.76957750      16.40300113       10       0.00120234       0.00199844       0.02377985
C        6.10377803       2.16709431      16.36972759       10       0.00011334       0.00079748       0.01015099
C        7.31629502       2.86668650      16.38367288       10       0.00040671      -0.00065114       0.02051232
C        4.89050976       4.26715269      16.34513157       10      -0.00149050       0.00146069      -0.01560242
C        6.10507131       4.96632549      16.34781318       10      -0.00186917       0.00079600       0.02146975
C        3.67842309       6.36699659      16.34513157       10      -0.00147549      -0.00039553       0.00856482
C        4.89159398       7.06857116      16.34781318       10      -0.00150453      -0.00057348       0.01155606
C        2.46804023       8.46640777      16.36972759       10      -0.00053224       0.00101913       0.02884098
C        3.67932811       9.16679374      16.38367288       10      -0.00088734       0.00159057       0.01203499
C        9.73973952       0.06941406      16.40138331       10      -0.00342310      -0.00267553      -0.00317289
C       10.94839648       0.76985331      16.40300113       10       0.00554705       0.00057866       0.04046575
C        8.52873901       2.16657533      16.40138331       10      -0.00048885      -0.00039173       0.00610371
C        9.73961462       2.86408403      16.40300113       10      -0.00036260      -0.00242320       0.02130217
C        7.31576963       4.26620263      16.36972759       10      -0.00352986      -0.00117493       0.00781986
C        8.52846803       4.95988388      16.38077056       10      -0.00025876      -0.00291229       0.02260142
C        6.10581969       6.36911740      16.33320689       10      -0.00166806       0.00021425      -0.02206537
C        7.31451016       7.06661807      16.30087318       10       0.00000351      -0.00228512      -0.03059758
C        4.89032066       8.46720082      16.36972759       10      -0.00345010      -0.00236687      -0.00203708
C        6.09767376       9.17044220      16.38077056       10       0.00405349       0.00243490       0.04427634
O       -2.38981604       8.45857025      14.51446068       11      -0.00193071       0.00117622       0.00103057
