131
Lattice="12.12 0.0 0.0 -6.06 10.496227893867395 0.0 0.0 0.0 40.0" Properties=species:S:1:pos:R:3:tags:I:1:forces:R:3 energy=-1204.3570603614892 stress="0.002807646753523747 5.89939555178646e-07 -1.8125363209911014e-06 5.89939555178646e-07 0.00280527433750144 -4.781638794535307e-06 -1.8125363209911014e-06 -4.781638794535307e-06 0.002946978864021988" pbc="T T F"
C        0.23264563      -0.07626276       9.94485948        2      -0.00053006       0.00017441       0.00006723
Ti       0.25762622       1.65522164       8.67612858        0      -0.00157496      -0.00148155      -0.00315336
Ti       1.77098595       0.81503310      11.28010855        0      -0.00209478       0.00352948      -0.00109662
O        0.23112167       1.67319600      12.23159545        3       0.00006485      -0.00182744      -0.23333845
O        1.79123679       0.76453572       7.79311668        1      -0.00089224      -0.00003306      -0.00074226
C       -1.25809321       2.53069005       9.94511089        2       0.00095649      -0.00001878       0.00099146
Ti      -1.25915933       4.28164085       8.67574524        0      -0.00109144       0.00026080      -0.00276424
Ti       0.25259785       3.40261868      11.28767125        0      -0.00088427      -0.00085599       0.00123541
O       -1.25650016       4.24858101      12.23159545        3      -0.00008788      -0.00187115      -0.23383951
O        0.26126339       3.40801723       7.75388527        1      -0.00138977      -0.00065699       0.00113359
C       -2.77098172       5.12427652       9.94248384        2      -0.00021438      -0.00307107       0.00070126
Ti      -2.77086266       6.89503440       8.75542138        0      -0.00128018       0.00142049      -0.00269648
Ti      -1.22901498       6.01066696      11.28056459        0       0.00119073      -0.00279843      -0.00055636
O       -2.77066444       6.68263768      12.23159545        3      -0.00062983       0.00212897      -0.43986681
O       -1.26316234       6.05525017       7.79297895        1       0.00021189      -0.00077268      -0.00036189
C       -4.26449156       7.79184026      10.06478101        2      -0.00207003      -0.00119223       0.00223631
Ti      -4.29440053       9.53514901       8.75451669        0       0.00147842      -0.00131881      -0.00237515
Ti      -2.77346097       8.64899357      11.72386874        0       0.00450817      -0.00578050      -0.00005557
O       -4.46968281       9.63730082      12.23159545        3      -0.00319961       0.00210845      -0.41759137
O       -2.77095565       8.65471928       7.87132121        1      -0.00142678      -0.00059790       0.00126961
C        3.28865362      -0.11550768      10.06170914        2      -0.00099770       0.00223673       0.00245919
Ti       3.28920025       1.66086778       8.71333167        0      -0.00080326      -0.00058066      -0.00340827
Ti       4.80601682       0.81418989      11.28057018        0       0.00207221      -0.00243230       0.00140311
O        3.28865935       1.68206413      12.23159545        3       0.00038277       0.00150160      -0.13069958
O        4.78725445       0.76469713       7.79344774        1      -0.00102003      -0.00062312      -0.00119636
C        1.76830129       2.54271588       9.96343996        2       0.00018401      -0.00165818       0.00081075
Ti       1.77171347       4.28071478       8.68243830        0      -0.00053138       0.00013308      -0.00323855
Ti       3.28910903       3.41691628      11.29538733        0      -0.00246665       0.00251298      -0.00008477
O        1.77142009       4.28010351      12.23159545        3      -0.00071573      -0.00009907      -0.17938387
O        3.28900441       3.38855930       7.77113169        1      -0.00024522       0.00257323      -0.00065088
C        0.26514876       5.14641979       9.96321182        2      -0.00016239      -0.00119002       0.00143618
Ti       0.26164477       6.90441425       8.71300575        0       0.00121989      -0.00179675      -0.00028108
Ti       1.78272111       6.02642478      11.29484164        0       0.00199548      -0.00151994      -0.00098024
O        0.28015999       6.89312394      12.23159545        3       0.00070906      -0.00097659      -0.13395248
O        1.75807373       6.04082612       7.77095902        1       0.00147629      -0.00144989       0.00127821
C       -1.27724863       7.79128628      10.06366260        2       0.00011181      -0.00149861       0.00103571
Ti      -1.24745408       9.53506605       8.75409723        0      -0.00244237      -0.00025709      -0.00330835
Ti       0.28595611       8.64248551      11.28223666        0       0.00071123      -0.00087483      -0.00053579
O       -1.07658209       9.63443996      12.23159545        3      -0.00247707      -0.00038052      -0.40764613
O        0.23457512       8.64977668       7.79375466        1      -0.00018576      -0.00112356      -0.00038294
C        6.34458293      -0.07679202       9.94579849        2       0.00070886       0.00087599       0.00266346
Ti       6.32077001       1.65555724       8.67687504        0      -0.00243177      -0.00109454      -0.00341804
Ti       7.83783443       0.78563986      11.28917643        0      -0.00156072      -0.00170209       0.00058405
O        6.34640198       1.67257878      12.23159545        3      -0.00161840      -0.00067932      -0.23296563
O        7.83014137       0.78080169       7.75029473        1       0.00061169      -0.00034675      -0.00181572
C        4.80923206       2.54258274       9.96376975        2       0.00061314      -0.00122901       0.00226373
Ti       4.80565710       4.28090251       8.68264872        0       0.00260537      -0.00186335      -0.00198004
Ti       6.32483260       3.40236672      11.28862391        0       0.00273163      -0.00125664      -0.00105553
O        4.80636898       4.28020773      12.23159545        3       0.00106665      -0.00167817      -0.17872513
O        6.31650458       3.40815050       7.75454815        1       0.00176594      -0.00139422       0.00116050
C        3.28893272       5.15666080       9.96028525        2      -0.00036559      -0.00041206       0.00104257
Ti       3.28875723       6.90871263       8.68373083        0      -0.00074624      -0.00048408      -0.00275908
Ti       4.79527002       6.02643747      11.29385122        0      -0.00182427       0.00052775       0.00037968
O        3.28888917       6.90934780      12.23159545        3      -0.00085889      -0.00034139      -0.18206446
O        4.81977319       6.04081194       7.77102774        1      -0.00193824      -0.00164957      -0.00029087
C        1.78511611       7.78046693       9.96396808        2      -0.00030624      -0.00047592       0.00167979
Ti       1.77264262       9.53246905       8.67741415        0      -0.00181456      -0.00174987      -0.00231426
Ti       3.28856639       8.66308076      11.28903900        0      -0.00047062       0.00061367       0.00157960
O        1.80071923       9.54666176      12.23159545        3      -0.00048472      -0.00044604      -0.23422150
O        3.28901274       8.65330044       7.75498780        1      -0.00076630       0.00063255       0.00140414
C        9.34880902      -0.08880304       9.94518498        2      -0.00064236      -0.00247953       0.00113931
Ti       9.34912001       1.65735745       8.68579178        0       0.00022095      -0.00114479      -0.00715761
Ti      10.85932882       0.78623043      11.28931615        0       0.00277561      -0.00258276      -0.00067430
O        9.34883689       1.65753888      12.23159545        3      -0.00107271      -0.00106396      -0.24746916
O       10.86766579       0.78081457       7.74951810        1      -0.00106352      -0.00044247       0.00224132
C        7.83577307       2.53061283       9.94515686        2      -0.00114272      -0.00030177       0.00117662
Ti       7.83730927       4.28160575       8.67622614        0      -0.00077945       0.00138978      -0.00347653
Ti       9.34911664       3.40081181      11.28888902        0      -0.00092466       0.00073435       0.00085120
O        7.83444599       4.24818429      12.23159545        3      -0.00054222      -0.00055271      -0.23422241
O        9.34890482       3.41075305       7.74928899        1      -0.00039811      -0.00243400      -0.00168378
C        6.31258975       5.14665966       9.96369892        2       0.00105766      -0.00166987       0.00166294
Ti       6.31583470       6.90398228       8.71335265        0       0.00167890       0.00032689      -0.00216246
Ti       7.80703207       6.01096934      11.28123145        0       0.00084737      -0.00340281       0.00169768
O        6.29764165       6.89344154      12.23159545        3      -0.00181299      -0.00204516      -0.13560152
O        7.84090303       6.05521081       7.79366018        1      -0.00029217       0.00010775      -0.00098764
C        4.79258435       7.78056663       9.96415809        2       0.00120398      -0.00028802       0.00082477
Ti       4.80581907       9.53243979       8.67716195        0       0.00045886       0.00009334      -0.00299244
Ti       6.29105289       8.64282108      11.28234962        0      -0.00460406      -0.00159692      -0.00065362
O        4.77613560       9.54701889      12.23159545        3       0.00171132      -0.00028245      -0.23435655
O        6.34357913       8.64930005       7.79401970        1      -0.00005814      -0.00032645      -0.00011847
C       -0.36104760       0.21160503      15.54343103       10      -0.00511278      -0.00067310       0.05606763
C        0.84620699       0.91379969      15.52813898       10       0.00119669       0.00230804       0.03580057
C       -1.57416080       2.31214490      15.54875173       10      -0.00135961       0.00274074       0.06530196
C       -0.36233985       3.01187334      15.53104130       10       0.00097607       0.00092284       0.05445627
C       -2.78673322       4.41294443      15.54343103       10      -0.00068364       0.00270503       0.05553491
C       -1.57515421       5.10766192      15.52813898       10       0.00200229       0.00081805       0.03835247
C       -3.99322644       6.51396411      15.48032028       10      -0.00032303       0.00165053       0.16670850
C       -2.78685585       7.19116382      15.43849806       10       0.00188880       0.00048222      -0.34773145
C       -5.20518642       8.61265122      15.48032028       10      -0.00333306       0.00137027       0.17105122
C       -4.01667651       9.31943614      15.43849806       10       0.00543250       0.00363925      -0.30727796
C        2.06134806       0.20649918      15.48032028       10      -0.00123552      -0.00106157       0.17290059
C        3.27342670       0.91397503      15.44824160       10      -0.00187786       0.00040805       0.02272151
C        0.84989358       2.31261495      15.51709601       10       0.00026040       0.00089178       0.07900127
C        2.06101829       3.01140231      15.49518160       10       0.00039187       0.00185084       0.11063233
C       -0.36179901       4.41128348      15.51709601       10       0.00084441       0.00061174       0.08181945
C        0.84917120       5.11027724      15.49518160       10       0.00041131       0.00145146       0.10797930
C       -1.58027567       6.51399998      15.48032028       10       0.00079556      -0.00055629       0.16708958
C       -0.36124175       7.20916047      15.44824160       10       0.00005337       0.00128092       0.02240073
C       -2.78635530       8.61114211      14.98569240       10       0.00172512       0.00042484       1.37851061
C       -1.55636803       9.31981070      15.43849806       10       0.00043359       0.00204503      -0.29093769
C        4.48560330       0.20659017      15.48032028       10      -0.00029795      -0.00021968       0.17439328
C        5.70064863       0.91393520      15.52813898       10      -0.00058525       0.00116253       0.03305168
C        3.27324512       2.30882563      15.48057531       10       0.00031363       0.00079590       0.03995839
C        4.48541733       3.01148394      15.49518160       10       0.00000353       0.00128376       0.10955713
C        2.06223968       4.41133332      15.49249999       10       0.00043483       0.00187845       0.06719612
C        3.27314341       5.11034117      15.48749922       10       0.00025076       0.00060631       0.13576786
C        0.84664899       6.51138852      15.48057531       10       0.00000485       0.00090897       0.03709767
C        2.06142408       7.20958518      15.49518160       10      -0.00022374       0.00100647       0.10471603
C       -0.36804465       8.61276214      15.48032028       10       0.00119480       0.00078876       0.17282747
C        0.85234613       9.31117871      15.52813898       10       0.00050932       0.00156269       0.03055406
C        6.90795924       0.21167555      15.54343103       10       0.00005736      -0.00017114       0.05719346
C        8.12302727       0.91318499      15.55036955       10      -0.00051249       0.00179629       0.02390456
C        5.69667236       2.31268906      15.51709601       10       0.00019942       0.00125305       0.07647443
C        6.90893846       3.01188192      15.53104130       10       0.00054451       0.00212550       0.05272466
C        4.48408969       4.41142783      15.49249999       10       0.00009862       0.00070827       0.06498735
C        5.69717044       5.11031186      15.49518160       10       0.00032300       0.00099232       0.10615385
C        3.27321101       6.50844277      15.49249999       10      -0.00007981       0.00048955       0.06033496
C        4.48500172       7.20956188      15.49518160       10      -0.00002304       0.00162389       0.10402399
C        2.06164328       8.60809650      15.51709601       10       0.00175042       0.00128736       0.07470481
C        3.27331554       9.30844092      15.53104130       10       0.00082921       0.00366841       0.04951115
C        9.33350519       0.21194727      15.54875173       10      -0.00321688      -0.00101069       0.06508395
C       10.54381964       0.91317860      15.55036955       10       0.00384595       0.00113985       0.02422400
C        8.12093912       2.31219575      15.54875173       10      -0.00018151       0.00090897       0.06510248
C        9.33333310       3.00991940      15.55036955       10       0.00155893       0.00057624       0.02407470
C        6.90822296       4.41129938      15.51709601       10      -0.00015941       0.00092121       0.08050982
C        8.12157128       5.10762155      15.52813898       10       0.00197813      -0.00035336       0.03713595
C        5.69979364       6.51142424      15.48057531       10       0.00004753       0.00139972       0.03642250
C        6.90769128       7.20912818      15.44824160       10       0.00188392       0.00035533       0.02243079
C        4.48491476       8.60807638      15.51709601       10      -0.00056948       0.00056454       0.07591792
C        5.69424444       9.31109909      15.52813898       10       0.00501629       0.00338298       0.03190920
O       -2.78024340       8.63149696      13.60190073       11       0.00312025      -0.00247101       0.00061861
