131
Lattice="12.12 0.0 0.0 -6.06 10.496227893867395 0.0 0.0 0.0 40.0" Properties=species:S:1:pos:R:3:tags:I:1:forces:R:3 energy=-1205.1972953621632 stress="0.0028369615540089956 4.046272015631426e-07 -1.7437978284479374e-06 4.046272015631426e-07 0.002832903005591545 -6.532331393488111e-06 -1.7437978284479374e-06 -6.532331393488111e-06 0.0028615269528619114" pbc="T T F"
C        0.23918180      -0.07649863       9.96201521        2      -0.00169415      -0.00002138      -0.00080666
Ti       0.25901915       1.66021750       8.67496705        0      -0.00228857      -0.00298044       0.00321922
Ti       1.77941146       0.81646348      11.26854027        0      -0.00279422      -0.00472479      -0.00068584
O        0.24220140       1.67029351      12.23159545        3      -0.00058948       0.00095396      -0.14150851
O        1.78346767       0.77530392       7.77503217        1      -0.00318375      -0.00347845      -0.00034855
C       -1.25577913       2.53310358       9.96346853        2       0.00036206       0.00084185      -0.00259695
Ti      -1.25631183       4.28284875       8.67459057        0      -0.00212281      -0.00127533       0.00171390
Ti       0.25698115       3.40662208      11.31003199        0      -0.00004672      -0.00072457       0.00039687
O       -1.25475453       4.26047459      12.23159545        3       0.00030644      -0.00070194      -0.14103593
O        0.26243360       3.41068610       7.75809167        1      -0.00031050       0.00163191       0.00119115
C       -2.76994450       5.13071408       9.96036713        2       0.00090525       0.00054714      -0.00464242
Ti      -2.77017918       6.89580252       8.73007495        0      -0.00015895       0.00183167       0.00192270
Ti      -1.22510354       6.01824336      11.26955900        0      -0.00241134      -0.00379300       0.00009089
O       -2.76943957       6.72105589      12.23159545        3       0.00017800      -0.00609459      -0.08355940
O       -1.26079582       6.04565145       7.77631220        1      -0.00094910       0.00049853      -0.00288882
C       -4.28935153       7.77874531      10.02263380        2      -0.00231844      -0.00305421      -0.00285441
Ti      -4.29426905       9.53950591       8.72750959        0      -0.00260796       0.00001831       0.00604274
Ti      -2.77287411       8.64774234      12.02132815        0      -0.00633614       0.00075220      -0.00690718
O       -4.43388195       9.61981908      12.23159545        3       0.00012268      -0.00112596      -0.05946768
O       -2.76949464       8.65737343       7.85979787        1      -0.00021419      -0.00118557      -0.00042871
C        3.28994610      -0.07909482      10.01806544        2      -0.00030784       0.00150746      -0.00460358
Ti       3.29033120       1.65433687       8.70270294        0       0.00156879      -0.00424803       0.00148557
Ti       4.80109819       0.81495512      11.26868305        0      -0.00083881      -0.00243690       0.00156469
O        3.29055943       1.67434301      12.23159545        3      -0.00122034      -0.00124967      -0.07600773
O        4.79817663       0.77549478       7.77569667        1       0.00085452      -0.00305894      -0.00006041
C        1.76880616       2.54653577       9.97500132        2       0.00138746      -0.00278268      -0.00208858
Ti       1.77636226       4.28717243       8.67723451        0      -0.00183437      -0.00488837       0.00108079
Ti       3.29039943       3.40994661      11.30264892        0       0.00085242      -0.00246258      -0.00174404
O        1.77348834       4.28360942      12.23159545        3      -0.00023351      -0.00082002      -0.12038229
O        3.29000277       3.39824198       7.76678458        1       0.00155706      -0.00227448      -0.00202006
C        0.26644884       5.14748010       9.97520564        2      -0.00020932      -0.00018740      -0.00214594
Ti       0.25193575       6.91326649       8.70413751        0       0.00259717      -0.00198651      -0.00225866
Ti       1.77589757       6.03418094      11.30125141        0      -0.00211623       0.00156189      -0.00037649
O        0.27299679       6.90103971      12.23159545        3      -0.00369350      -0.00005029      -0.07321907
O        1.76249984       6.04213291       7.76669982        1       0.00461287      -0.00416441       0.00139765
C       -1.24929050       7.77779805      10.02125887        2       0.00161346      -0.00226525      -0.00065082
Ti      -1.24499684       9.54010335       8.72814728        0      -0.00274391      -0.00304166       0.00159517
Ti       0.28280737       8.63932040      11.27086959        0      -0.00035535       0.00122521      -0.00009539
O       -1.11165724       9.61574887      12.23159545        3       0.00266523       0.00116328      -0.04157194
O        0.24648356       8.65771492       7.77722784        1      -0.00112910      -0.00122180      -0.00298310
C        6.34125697      -0.07636067       9.96430285        2      -0.00118043      -0.00311760      -0.00549810
Ti       6.32262481       1.66001552       8.67614440        0      -0.00263192      -0.00086618       0.00188684
Ti       7.83337756       0.78487124      11.31010330        0      -0.00468704      -0.00354593      -0.00046101
O        6.33817619       1.66984419      12.23159545        3       0.00023909       0.00182901      -0.13920748
O        7.83392759       0.78431796       7.75932042        1      -0.00165435      -0.00021352      -0.00335805
C        4.81200339       2.54637382       9.97531469        2      -0.00348798      -0.00322961      -0.00235538
Ti       4.80381452       4.28594707       8.67772105        0       0.00271024      -0.00230739       0.00129191
Ti       6.32354125       3.40654603      11.31099552        0      -0.00053032      -0.00164860       0.00117821
O        4.80752873       4.28348750      12.23159545        3      -0.00133327      -0.00002504      -0.11896851
O        6.31836463       3.41052470       7.75930800        1      -0.00015047      -0.00076188      -0.00177496
C        3.28954397       5.15994979       9.96892501        2       0.00217626      -0.00155353      -0.00172582
Ti       3.28905270       6.90728196       8.67872761        0       0.00251549       0.00139709       0.00032663
Ti       4.80491726       6.03432671      11.30078775        0       0.00022555      -0.00092801       0.00007346
O        3.29033304       6.91170452      12.23159545        3       0.00010920      -0.00039693      -0.11475832
O        4.81609102       6.04130423       7.76740718        1       0.00229221      -0.00188506      -0.00193167
C        1.78711927       7.78434401       9.97556239        2      -0.00149201      -0.00149841      -0.00221630
Ti       1.77546827       9.53382080       8.67700240        0      -0.00044639       0.00064579       0.00164230
Ti       3.29027916       8.66266266      11.31228483        0      -0.00103740       0.00046784       0.00184023
O        1.79307243       9.54308491      12.23159545        3      -0.00078805      -0.00252635      -0.13780423
O        3.29024077       8.65664573       7.75958323        1      -0.00176956      -0.00247377       0.00136270
C        9.35070326      -0.08696118       9.96456639        2      -0.00139335      -0.00277716      -0.00184097
Ti       9.35082922       1.65919109       8.69924343        0      -0.00028590      -0.00050271      -0.00176374
Ti      10.86835571       0.78451104      11.30900541        0      -0.00125769       0.00015491      -0.00103403
O        9.35083402       1.65938385      12.23159545        3      -0.00009601      -0.00098183      -0.15232304
O       10.86724975       0.78441096       7.75844210        1      -0.00090830      -0.00067132      -0.00301691
C        7.83736294       2.53288752       9.96415777        2      -0.00346926       0.00123231      -0.00429445
Ti       7.83773405       4.28250219       8.67521432        0      -0.00076798       0.00250300       0.00040696
Ti       9.35069670       3.40985972      11.30806583        0      -0.00031821       0.00183742      -0.00040954
O        7.83558337       4.26033159      12.23159545        3      -0.00082551      -0.00147971      -0.14000535
O        9.35053083       3.41008981       7.75760009        1      -0.00108575       0.00000407      -0.00326239
C        6.31376457       5.14724239       9.97535914        2       0.00087875       0.00303982      -0.00169091
Ti       6.32643666       6.91207081       8.70309640        0       0.00408055      -0.00021718       0.00277524
Ti       7.80587425       6.01787617      11.26947324        0       0.00283009       0.00188602       0.00195268
O        6.30762715       6.90078321      12.23159545        3       0.00026483      -0.00118747      -0.07541327
O        7.84044863       6.04554158       7.77637412        1       0.00244056      -0.00021978      -0.00003740
C        4.79311455       7.78385467       9.97553681        2       0.00279223      -0.00096936      -0.00261643
Ti       4.80548603       9.53403986       8.67638445        0       0.00193123       0.00054617       0.00218901
Ti       6.29673132       8.63890248      11.27065337        0       0.00261888       0.00353332      -0.00037262
O        4.78717438       9.54313878      12.23159545        3       0.00027880      -0.00094710      -0.13910415
O        6.33412649       8.65630412       7.77674340        1       0.00098345       0.00238503      -0.00124409
C       -0.36297119       0.20726778      15.82764156       10       0.00532454       0.00356537       0.02441928
C        0.84367608       0.90920020      15.81234951       10      -0.00045449      -0.00050048      -0.01216690
C       -1.57739730       2.30769210      15.83296226       10       0.00231979       0.00066727       0.01229766
C       -0.36571085       3.00718197      15.81525183       10       0.00117687       0.00303286       0.02022337
C       -2.78895442       4.40995077      15.82764156       10       0.00174955       0.00099547       0.02699157
C       -1.57779171       5.10393159      15.81234951       10      -0.00105208       0.00211299      -0.01152124
C       -3.99585315       6.51077562      15.76453081       10       0.00222379       0.00057532       0.12710055
C       -2.78878669       7.19090701      15.72270859       10      -0.00017194       0.00121254      -0.30933612
C       -5.20691460       8.60817970      15.76453081       10       0.00269631       0.00087273       0.13216328
C       -4.01503236       9.31390523      15.72270859       10      -0.00497747      -0.00173361      -0.26951682
C        2.05973418       0.20266861      15.76453081       10       0.00147167       0.00224208       0.13470333
C        3.27110446       0.91061489      15.73245213       10       0.00224878       0.00166043       0.01459078
C        0.84654413       2.30792916      15.80130654       10       0.00093486       0.00071456       0.05002195
C        2.05821262       3.00659073      15.77939213       10       0.00039039       0.00004111       0.08141886
C       -0.36510889       4.40667146      15.80130654       10       0.00039244       0.00392652       0.04993533
C        0.84574783       5.10646806      15.77939213       10       0.00101857       0.00204917       0.07699745
C       -1.58182190       6.51061659      15.76453081       10       0.00021155       0.00211325       0.12775976
C       -0.36285740       7.20514285      15.73245213       10       0.00018515       0.00074432       0.01069176
C       -2.78806548       8.60747927      15.26990293       10      -0.00015209       0.00111744       0.79284227
C       -1.56172824       9.31423743      15.72270859       10       0.00109185       0.00068490      -0.24898091
C        4.48274854       0.20282617      15.76453081       10       0.00102297       0.00195662       0.13811101
C        5.69872840       0.90946358      15.81234951       10       0.00100380      -0.00047592      -0.01398187
C        3.27105292       2.30460247      15.76478584       10       0.00062771       0.00171207       0.01106631
C        4.48378199       3.00667051      15.77939213       10       0.00108738      -0.00018193       0.08065889
C        2.05916623       4.40704062      15.77671052       10       0.00045186       0.00012786       0.03506305
C        3.27095667       5.10663183      15.77170975       10       0.00105517       0.00099533       0.05453026
C        0.84423354       6.50789462      15.76478584       10       0.00057943       0.00186777       0.01044778
C        2.05872890       7.20691632      15.77939213       10      -0.00042383       0.00300860       0.07433756
C       -0.37027303       8.60835784      15.76453081       10      -0.00021310       0.00093893       0.13623150
C        0.85005230       9.30787864      15.81234951       10      -0.00169131       0.00211478      -0.01588097
C        6.90531550       0.20751926      15.82764156       10       0.00004510       0.00193899       0.02304599
C        8.12105744       0.90961043      15.83458008       10       0.00156323      -0.00038335      -0.00446137
C        5.69560929       2.30816554      15.80130654       10      -0.00041210      -0.00104385       0.04968798
C        6.90791927       3.00737536      15.81525183       10      -0.00215886       0.00193577       0.01579663
C        4.48269752       4.40705448      15.77671052       10       0.00202438       0.00059245       0.03475588
C        5.69619323       5.10647700      15.77939213       10       0.00089123       0.00282790       0.07361181
C        3.27097422       6.50575793      15.77671052       10       0.00115910       0.00282176       0.03378123
C        4.48334100       7.20697125      15.77939213       10       0.00253943       0.00173792       0.07174869
C        2.05964855       8.60557717      15.80130654       10      -0.00345797       0.00228979       0.04897834
C        3.27125910       9.30610170      15.81525183       10      -0.00039700      -0.00318512       0.00829225
C        9.33108953       0.20911789      15.83296226       10       0.00404954       0.00011583       0.00739846
C       10.54128778       0.90944952      15.83458008       10      -0.00290006       0.00086217      -0.00494454
C        8.11962753       2.30780159      15.83296226       10      -0.00059028       0.00214072       0.01094974
C        9.33115093       3.00571788      15.83458008       10      -0.00076069       0.00251540      -0.00595091
C        6.90715039       4.40687727      15.80130654       10       0.00106905       0.00361175       0.04975627
C        8.11996307       5.10396470      15.81234951       10       0.00007329       0.00298259      -0.01268744
C        5.69784323       6.50788746      15.76478584       10       0.00232102       0.00205279       0.01004174
C        6.90508434       7.20504963      15.73245213       10       0.00096784       0.00202349       0.00896729
C        4.48288639       8.60553697      15.80130654       10       0.00257160       0.00202878       0.04920367
C        5.69271939       9.30768401      15.81234951       10      -0.00371436       0.00104959      -0.01512524
O       -2.78222921       8.62358087      13.83015171       11       0.00034331       0.00216169       0.00373557
