131
Lattice="12.12 0.0 0.0 -6.06 10.496227893867395 0.0 0.0 0.0 40.0" Properties=species:S:1:pos:R:3:tags:I:1:forces:R:3 energy=-1205.299186243043 stress="0.0028573414581875003 -6.364566148858492e-07 2.2664826552560696e-06 -6.364566148858492e-07 0.002856933369598983 -2.2987863236848795e-06 2.2664826552560696e-06 -2.2987863236848795e-06 0.0021666716443561854" pbc="T T F"
C       -0.00124240       0.00044309      10.00548410        2       0.00010767      -0.00025301       0.00131433
Ti       0.00042180       1.74877697       8.69329525        0       0.00021655      -0.00000446       0.00084212
Ti       1.51802358       0.87477867      11.31285954        0       0.00091147      -0.00132687      -0.00053842
O        0.00051367       1.74898218      12.23159545        3      -0.00012553       0.00014880       0.07762153
O        1.51649604       0.87155646       7.77667571        1       0.00031003      -0.00057397       0.00049950
C       -1.51471961       2.62379857      10.00409057        2       0.00035341      -0.00029348       0.00093963
Ti      -1.51468559       4.37422864       8.69526693        0       0.00019376      -0.00056639       0.00143870
Ti       0.00065578       3.49961097      11.30740073        0       0.00099779       0.00039730      -0.00237499
O       -1.51471869       4.37513695      12.23159545        3       0.00031593      -0.00133092       0.07948799
O       -0.00103891       3.49825952       7.77136536        1       0.00028585      -0.00004443       0.00011185
C       -3.03006596       5.24646669      10.00623635        2       0.00007901      -0.00056184       0.00126824
Ti      -3.03170489       6.99572937       8.70190895        0       0.00043985      -0.00034084       0.00209436
Ti      -1.51458851       6.12815763      11.32129498        0      -0.00063252       0.00116617       0.00062725
O       -3.03402444       6.98801966      12.23159545        3       0.00024973      -0.00162425      -0.01916173
O       -1.51593748       6.12655006       7.78007275        1       0.00014719      -0.00027544       0.00108796
C       -4.54511863       7.87105741      10.01353583        2       0.00021404      -0.00042290       0.00152060
Ti      -4.54521739       9.62138766       8.70173356        0       0.00020322      -0.00019760       0.00150804
Ti      -3.02632799       8.74484054      11.34100267        0       0.00132049      -0.00052096       0.00224749
O       -4.54910491       9.62320538      12.23159545        3      -0.00098414       0.00031969       0.05029039
O       -3.02851145       8.74604253       7.78448119        1       0.00023121      -0.00025223       0.00184951
C        3.03080226       0.00041515      10.01432111        2       0.00042222      -0.00021019       0.00132703
Ti       3.02991729       1.74961616       8.69735456        0       0.00044835      -0.00037426       0.00100435
Ti       4.54557609       0.87730441      11.31176771        0      -0.00009672      -0.00266925       0.00109583
O        3.03277528       1.75369355      12.23159545        3       0.00057667       0.00029246       0.10751695
O        4.54376312       0.87136536       7.77653127        1       0.00021887      -0.00091923       0.00101053
C        1.51517215       2.62449185      10.00397227        2       0.00064552      -0.00001169       0.00134346
Ti       1.51425046       4.37267215       8.69202203        0       0.00075959      -0.00001055       0.00126023
Ti       3.03061387       3.50029504      11.30534870        0       0.00067839      -0.00052651      -0.00296861
O        1.51690516       4.37402792      12.23159545        3       0.00113280      -0.00008375       0.06925873
O        3.02948228       3.49633262       7.77044870        1       0.00021963      -0.00066598      -0.00039387
C        0.00201819       5.24670928      10.00380947        2       0.00061859      -0.00036497       0.00152811
Ti       0.00307980       6.99562787       8.70000878        0      -0.00005113      -0.00004755       0.00114319
Ti       1.51810977       6.12125696      11.30535867        0      -0.00064086       0.00013806      -0.00108313
O        0.00699814       6.99388168      12.23159545        3       0.00073757      -0.00048192       0.04070463
O        1.51280776       6.12388943       7.77129424        1      -0.00040104       0.00014621       0.00050762
C       -1.51512600       7.87211661      10.02350737        2       0.00031006      -0.00036531       0.00071132
Ti      -1.51430702       9.62366846       8.70200490        0       0.00037985      -0.00041656       0.00203722
Ti      -0.00450457       8.74410055      11.32161312        0      -0.00161269      -0.00006895       0.00074728
O       -1.50883307       9.62868071      12.23159545        3       0.00157796       0.00021992      -0.02897594
O       -0.00387650       8.74569966       7.78003634        1       0.00015646      -0.00016512       0.00098065
C        6.06112317       0.00067276      10.00640218        2       0.00049347       0.00005804       0.00110797
Ti       6.06054606       1.74929711       8.69403651        0       0.00002010      -0.00013545       0.00088242
Ti       7.57459687       0.87322353      11.30720887        0      -0.00026009      -0.00028434      -0.00216751
O        6.06224546       1.75252318      12.23159545        3       0.00071438       0.00075528       0.06118406
O        7.57458866       0.87326764       7.77163164        1       0.00016066      -0.00023417      -0.00005383
C        4.54540342       2.62560864      10.00240167        2       0.00014589      -0.00013394       0.00072315
Ti       4.54536132       4.37331663       8.68873268        0       0.00048124      -0.00042158       0.00146854
Ti       6.05947676       3.49856480      11.30582727        0      -0.00037794       0.00003691      -0.00322370
O        4.54623371       4.37318172      12.23159545        3       0.00040216      -0.00019821       0.04970022
O        6.06105041       3.49803774       7.77012642        1       0.00061821      -0.00047337      -0.00049803
C        3.03085904       5.24770506      10.00149712        2       0.00042204      -0.00030368       0.00066905
Ti       3.03028119       6.99846161       8.69171893        0       0.00031775      -0.00071783       0.00128997
Ti       4.54386677       6.12156682      11.30512207        0       0.00050910      -0.00061488      -0.00320533
O        3.03109331       6.99645288      12.23159545        3       0.00061569      -0.00091755       0.06335761
O        4.54681101       6.12432138       7.77029759        1       0.00060071      -0.00007214      -0.00050575
C        1.51728651       7.87090169      10.00339513        2       0.00060441      -0.00051469       0.00136069
Ti       1.51452313       9.62079302       8.69518957        0       0.00037902      -0.00008316       0.00135511
Ti       3.02911869       8.74582313      11.30706340        0       0.00012911      -0.00121331      -0.00250530
O        1.51349410       9.61953997      12.23159545        3       0.00130804       0.00003469       0.07175517
O        3.02978999       8.74798281       7.77105810        1       0.00002112      -0.00032305       0.00004198
C        9.09018545      -0.00016738      10.00354147        2       0.00034321      -0.00038241       0.00097147
Ti       9.08967016       1.74947019       8.69051751        0       0.00047775      -0.00040473       0.00095566
Ti      10.60536040       0.87417326      11.30781173        0       0.00057713      -0.00043999      -0.00271582
O        9.08762153       1.75000529      12.23159545        3      -0.00003440      -0.00019755       0.07926301
O       10.60575602       0.87441293       7.77117352        1       0.00042060      -0.00037476      -0.00050224
C        7.57556996       2.62357672      10.00152289        2       0.00009760      -0.00017595       0.00139147
Ti       7.57545756       4.37294048       8.69404888        0       0.00003264      -0.00015615       0.00087661
Ti       9.09088307       3.49933648      11.30739743        0       0.00010332       0.00012294      -0.00225146
O        7.57287962       4.36969009      12.23159545        3      -0.00043464      -0.00096235       0.05382805
O        9.09116558       3.49965018       7.77164044        1       0.00019240      -0.00022330      -0.00005666
C        6.05899605       5.24701142      10.00228531        2       0.00009076      -0.00015539       0.00078578
Ti       6.06006535       6.99756346       8.69712571        0       0.00045878      -0.00034603       0.00099726
Ti       7.57227954       6.12038940      11.31129178        0       0.00204936       0.00111233       0.00070702
O        6.05719829       6.99278851      12.23159545        3      -0.00009162      -0.00089321       0.10624895
O        7.57740039       6.12530275       7.77615338        1       0.00081724       0.00007698       0.00101224
C        4.54477301       7.87182663      10.00345222        2       0.00026458      -0.00073686       0.00136734
Ti       4.54570887       9.62148911       8.69292079        0       0.00000571      -0.00040337       0.00089029
Ti       6.06033585       8.74416014      11.31201290        0       0.00158050      -0.00014681      -0.00055093
O        4.54433573       9.62036016      12.23159545        3      -0.00036401      -0.00030536       0.08415093
O        6.06345714       8.74724605       7.77608328        1       0.00062972      -0.00011306       0.00054580
C        0.04064396       0.07030307      17.10658893       10      -0.00183265       0.00030054       0.03027094
C        1.24903922       0.77072449      17.09129688       10       0.00297272      -0.00028731       0.00873018
C       -1.16944653       2.16794848      17.11190963       10      -0.00123008       0.00007391      -0.00226399
C        0.04239517       2.86757768      17.09419920       10      -0.00101342      -0.00034391      -0.00224161
C       -2.38112392       4.26541555      17.10658893       10      -0.00142127      -0.00129830      -0.00390651
C       -1.16992501       4.96197735      17.09129688       10      -0.00139957       0.00054369      -0.01034108
C       -3.58677683       6.36804916      17.04347818       10      -0.00060567      -0.00026910       0.03258933
C       -2.38087806       7.05005461      17.00165596       10      -0.00081091       0.00276384      -0.13927317
C       -4.80140385       8.47109377      17.04347818       10      -0.00213732      -0.00007572       0.03229672
C       -3.60841712       9.17463253      17.00165596       10       0.00376922      -0.00053333      -0.14660224
C        2.46426751       0.06344640      17.04347818       10       0.00137243      -0.00236115       0.03196072
C        3.67894363       0.76794448      17.01139950       10      -0.00064866       0.00043258      -0.03454961
C        1.25453934       2.16843846      17.08025391       10      -0.00068572      -0.00051555       0.00150678
C        2.46612596       2.86654736      17.05833950       10      -0.00139878       0.00141737      -0.00684957
C        0.04312727       4.26711976      17.08025391       10      -0.00115875       0.00027519      -0.00648131
C        1.25330986       4.96719531      17.05833950       10      -0.00068547       0.00064672      -0.01350636
C       -1.17537023       6.36807357      17.04347818       10      -0.00226785       0.00095834       0.02662303
C        0.04226563       7.06684095      17.01139950       10      -0.00088417      -0.00023192      -0.07482933
C       -2.38141684       8.46630908      16.54885030       10       0.00008934       0.00107549      -0.15636075
C       -1.15456219       9.17395822      17.00165596       10      -0.00093672      -0.00019771      -0.13315471
C        4.89311203       0.06307514      17.04347818       10      -0.00008924       0.00011032       0.04057363
C        6.10825414       0.77041763      17.09129688       10      -0.00001405       0.00083421      -0.02295696
C        3.67914144       2.16428182      17.04373321       10      -0.00101288       0.00121052      -0.03075761
C        4.89227606       2.86653973      17.05833950       10      -0.00050086       0.00146905      -0.01722704
C        2.46729546       4.26742897      17.05565789       10      -0.00101251       0.00130480      -0.01133995
C        3.67924319       4.96719188      17.05065712       10      -0.00166674       0.00094752      -0.03171214
C        1.25151456       6.36880124      17.04373321       10      -0.00032173       0.00057357      -0.02293126
C        2.46614409       7.06798668      17.05833950       10      -0.00065739       0.00122518      -0.01991977
C        0.03871031       8.47083881      17.04347818       10      -0.00028565       0.00000406       0.03391030
C        1.25903746       9.16913104      17.09129688       10      -0.00028181       0.00161573      -0.01851509
C        7.31668070       0.07012488      17.10658893       10       0.00159688       0.00216013      -0.00680111
C        8.52899935       0.76995591      17.11352745       10       0.00144069       0.00231234       0.00063708
C        6.10343929       2.16865637      17.08025391       10       0.00025686       0.00082460      -0.03264877
C        7.31545930       2.86776621      17.09419920       10       0.00052168       0.00040516      -0.00581469
C        4.89133699       4.26731589      17.05565789       10      -0.00191747       0.00155961      -0.04599640
C        6.10493344       4.96684642      17.05833950       10      -0.00193814       0.00087255      -0.01220286
C        3.67919501       6.36652787      17.05565789       10      -0.00168814       0.00023624      -0.02071848
C        4.89173033       7.06791477      17.05833950       10      -0.00156383      -0.00015768      -0.00711381
C        2.46726710       8.46598154      17.08025391       10       0.00009830       0.00142098      -0.01039030
C        3.67886692       9.16640649      17.09419920       10      -0.00015328       0.00141157      -0.00937304
C        9.73888114       0.06948415      17.11190963       10      -0.00110720      -0.00006992      -0.00550687
C       10.94849923       0.77007671      17.11352745       10       0.00238642       0.00084004       0.00998466
C        8.52716276       2.16820711      17.11190963       10       0.00043215       0.00046961      -0.02391170
C        9.73891549       2.86554096      17.11352745       10       0.00021615      -0.00114297       0.00112831
C        7.31506015       4.26704834      17.08025391       10      -0.00240366      -0.00025703      -0.04553018
C        8.52819264       4.96201779      17.09129688       10      -0.00051626      -0.00177955      -0.01722760
C        6.10651922       6.36851135      17.04373321       10      -0.00146837       0.00060141      -0.03362792
C        7.31567385       7.06691041      17.01139950       10      -0.00015809      -0.00044253      -0.03788155
C        4.89053813       8.46619936      17.08025391       10      -0.00158837      -0.00067345      -0.00175075
C        6.09830537       9.16974546      17.09129688       10       0.00208091       0.00153490       0.00208047
O       -2.37729975       8.46819641      15.22344158       11      -0.00320784       0.00220959      -0.00215718
