131
Lattice="12.12 0.0 0.0 -6.06 10.496227893867395 0.0 0.0 0.0 40.0" Properties=species:S:1:pos:R:3:tags:I:1:forces:R:3 energy=-1203.1103394751458 stress="0.0027059324167273725 -4.6348362658624916e-08 -1.814305191541145e-06 -4.6348362658624916e-08 0.002706367539644065 -3.596582357461054e-06 -1.814305191541145e-06 -3.596582357461054e-06 0.0030741392931673624" pbc="T T F"
C        0.23073550      -0.07985276       9.93778263        2       0.00220131      -0.00079468       0.00187213
Ti       0.25503318       1.65057788       8.68629847        0       0.00107652       0.00029308      -0.00306111
Ti       1.76210257       0.81161768      11.30456548        0      -0.00345270       0.00033923      -0.00205288
O        0.22729860       1.67566048      12.23159545        3       0.00352800      -0.00122856      -0.24160425
O        1.79072802       0.76287499       7.79981649        1       0.00155723       0.00196593       0.00056270
C       -1.26025509       2.52651506       9.94370838        2       0.00076442      -0.00168893       0.00346318
Ti      -1.26069478       4.27773418       8.68632306        0       0.00055957      -0.00041717      -0.00308053
Ti       0.25697789       3.40163722      11.28258464        0      -0.00459910       0.00034076       0.00240363
O       -1.25288397       4.23995108      12.23159545        3      -0.00032617      -0.00253626      -0.24247390
O        0.26173862       3.40486681       7.75684396        1      -0.00210666      -0.00009759       0.00264470
C       -2.77168329       5.12106537       9.93591180        2      -0.00045857      -0.00333151       0.00591963
Ti      -2.77116444       6.89269174       8.75317781        0      -0.00211994      -0.00232545      -0.00299361
Ti      -1.23408187       6.00088298      11.30510724        0       0.00308560      -0.00115216      -0.00026784
O       -2.77177249       6.63875523      12.23159545        3      -0.00221702      -0.00050473      -0.67502183
O       -1.26093927       6.05174805       7.80053306        1       0.00121398      -0.00381709      -0.00222769
C       -4.26954045       7.78623133      10.06248356        2       0.00139226       0.00109024       0.00350143
Ti      -4.29528663       9.53115041       8.75298119        0       0.00301227      -0.00260362      -0.00185911
Ti      -2.77354650       8.64742480      11.47348841        0       0.00031452      -0.00012717      -0.00017084
O       -4.50795753       9.65481371      12.23159545        3      -0.00047049       0.00138551      -0.65682541
O       -2.77261901       8.65109367       7.85612428        1       0.00081021      -0.00187167       0.00610577
C        3.28730447      -0.11664811      10.06105259        2      -0.00131507      -0.00185564       0.00436724
Ti       3.28798141       1.65910861       8.72082070        0      -0.00028436       0.00240010      -0.00713300
Ti       4.81274888       0.81053119      11.30447373        0       0.00474959      -0.00525223      -0.00052269
O        3.28762642       1.68008676      12.23159545        3       0.00065304       0.00116438      -0.11528664
O        4.78438241       0.76148464       7.79974329        1       0.00099476       0.00580885       0.00092484
C        1.76761046       2.53864371       9.96371620        2       0.00097028      -0.00125252       0.00514404
Ti       1.76940588       4.27422545       8.68738468        0      -0.00062058       0.00214330      -0.00155950
Ti       3.28909950       3.42200397      11.28582305        0      -0.00322854       0.00215794      -0.00206148
O        1.77264090       4.27647861      12.23159545        3      -0.00116885       0.00011161      -0.15490417
O        3.28883121       3.38912308       7.77424605        1      -0.00154728       0.00368251       0.00207999
C        0.26483730       5.14258704       9.96404907        2       0.00046158      -0.00352726       0.00145545
Ti       0.26527137       6.89777478       8.72099882        0      -0.00167167      -0.00007798      -0.00447574
Ti       1.79098577       6.01713157      11.28642075        0      -0.00119872       0.00065124      -0.00014807
O        0.28084729       6.88794841      12.23159545        3       0.00122734      -0.00113626      -0.12129090
O        1.76287641       6.03339591       7.77504719        1      -0.00009556      -0.00048480      -0.00084532
C       -1.27532269       7.78582669      10.06301962        2      -0.00367415       0.00160009      -0.00181459
Ti      -1.24969041       9.52964107       8.75306527        0       0.00082654       0.00207866      -0.00242821
Ti       0.28836499       8.64533285      11.30552665        0       0.00331704      -0.00271326       0.00040573
O       -1.03978286       9.65255999      12.23159545        3       0.00251924       0.00179133      -0.65051673
O        0.23443482       8.64263773       7.80091376        1       0.00327625      -0.00022715      -0.00209712
C        6.34368029      -0.08108035       9.93812477        2       0.00198050       0.00157003       0.00578509
Ti       6.31967363       1.64978897       8.68638880        0      -0.00031682       0.00207966      -0.00418958
Ti       7.84461393       0.78550064      11.26590869        0      -0.00036245      -0.00179837       0.00248128
O        6.34759468       1.67460677      12.23159545        3      -0.00024780      -0.00002635      -0.24237001
O        7.82943115       0.77641719       7.74754589        1      -0.00035572      -0.00095587       0.00086623
C        4.80899221       2.53765749       9.96352667        2      -0.00020132       0.00288444       0.00564963
Ti       4.80858291       4.27466674       8.68693911        0      -0.00185499       0.00054512      -0.00082625
Ti       6.32102949       3.40036202      11.28148614        0       0.00155748       0.00096000       0.00293411
O        4.80550042       4.27620278      12.23159545        3      -0.00407887       0.00064415      -0.15974508
O        6.31571401       3.40414883       7.75646800        1      -0.00201312       0.00002770       0.00422055
C        3.28921009       5.15200765       9.96983223        2      -0.00193624      -0.00004637       0.00489443
Ti       3.28931292       6.90736325       8.68853427        0      -0.00285299      -0.00144180      -0.00163237
Ti       4.78563259       6.01641733      11.28654503        0      -0.00121434       0.00166298      -0.00030386
O        3.28875180       6.90335955      12.23159545        3      -0.00203871      -0.00067769      -0.15989641
O        4.81501584       6.03361135       7.77440703        1      -0.00402485      -0.00129830       0.00150310
C        1.78440222       7.77608447       9.96450829        2       0.00229800       0.00069280       0.00129642
Ti       1.77084482       9.52872684       8.68707704        0      -0.00072963      -0.00164434      -0.00343930
Ti       3.28801372       8.65494502      11.28163435        0      -0.00373184       0.00213296       0.00218815
O        1.80567171       9.54108109      12.23159545        3       0.00159612       0.00097706      -0.24305072
O        3.28800347       8.64774224       7.75727398        1      -0.00159712       0.00132182       0.00237568
C        9.34731459      -0.09203023       9.94468376        2       0.00110158      -0.00053986       0.00242988
Ti       9.34700106       1.65421126       8.67412917        0       0.00284885      -0.00262526      -0.00221042
Ti      10.84945649       0.78669727      11.26558444        0       0.00614451      -0.00358934       0.00305064
O        9.34713379       1.65382472      12.23159545        3       0.00170015      -0.00172275      -0.29810811
O       10.86558540       0.77734198       7.74704514        1       0.00147624      -0.00171182       0.00434542
C        7.83621688       2.52576028       9.94368292        2      -0.00223679       0.00061650       0.00439220
Ti       7.83746922       4.27866750       8.68612757        0      -0.00277367      -0.00323278      -0.00430820
Ti       9.34822467       3.38788628      11.26560211        0      -0.00074045       0.00126973       0.00345482
O        7.82958283       4.23974128      12.23159545        3      -0.00074161       0.00013966      -0.24610530
O        9.34829870       3.40696702       7.74694234        1      -0.00014502      -0.00094415       0.00125227
C        6.31275394       5.14248756       9.96299088        2      -0.00336623      -0.00281856       0.00625505
Ti       6.31266444       6.89903500       8.72094694        0      -0.00023265      -0.00135592      -0.00538886
Ti       7.81011108       6.00125724      11.30505052        0       0.00489580      -0.00238887       0.00154690
O        6.29544932       6.88862587      12.23159545        3      -0.00185089      -0.00269620      -0.12449938
O        7.83845124       6.05232850       7.79983876        1      -0.00486400      -0.00550902       0.00018466
C        4.79168190       7.77663494       9.96369132        2       0.00055799      -0.00159612       0.00488846
Ti       4.80484838       9.52969310       8.68667781        0      -0.00059519      -0.00198967      -0.00292032
Ti       6.28643235       8.64586618      11.30566463        0      -0.00369037      -0.00165665      -0.00161478
O        4.76899409       9.54213858      12.23159545        3       0.00249395      -0.00259138      -0.24341642
O        6.34107939       8.64387259       7.80018775        1      -0.00168252      -0.00320629       0.00056329
C       -0.35959428       0.21790982      15.25922050       10      -0.00640655      -0.00138154       0.08373378
C        0.84777412       0.92002972      15.24392845       10      -0.00109722       0.00315994       0.07662541
C       -1.57319206       2.31838488      15.26454120       10      -0.00099040       0.00217875       0.06124382
C       -0.36086292       3.01825435      15.24683077       10       0.00061605       0.00065905       0.09817913
C       -2.78549094       4.41956151      15.25922050       10      -0.00088577       0.00060535       0.09038474
C       -1.57367799       5.11398745      15.24392845       10       0.00133507      -0.00096387       0.07336771
C       -3.99178298       6.51995333      15.19610975       10      -0.00142125       0.00075756       0.21877540
C       -2.78558260       7.19639166      15.15428753       10       0.00121254      -0.00038344      -0.45296059
C       -5.20392119       8.61900733      15.19610975       10      -0.00433095       0.00201577       0.22151887
C       -4.01574459       9.32556706      15.15428753       10       0.00433196       0.00511123      -0.41767436
C        2.06259481       0.21237748      15.19610975       10      -0.00368064      -0.00114226       0.21971627
C        3.27470711       0.91857425      15.16403107       10      -0.00308415      -0.00024481       0.01643954
C        0.85197284       2.31895665      15.23288548       10      -0.00036776       0.00109074       0.05250408
C        2.06293291       3.01762902      15.21097107       10       0.00026395       0.00169246       0.06100844
C       -0.36002974       4.41816713      15.23288548       10       0.00036311       0.00031378       0.05678068
C        0.85072085       5.11731761      15.21097107       10       0.00009449       0.00075023       0.06110987
C       -1.57909370       6.52001924      15.19610975       10       0.00004091      -0.00196729       0.21830883
C       -0.36130379       7.21628587      15.16403107       10      -0.00099568       0.00110377       0.01278831
C       -2.78515391       8.61662678      14.70148187       10       0.00032361       0.00046796       2.19482375
C       -1.55479630       9.32599283      15.15428753       10      -0.00000513       0.00298235      -0.39627704
C        4.48688244       0.21250721      15.19610975       10      -0.00041619      -0.00064811       0.22167477
C        5.70153871       0.92027686      15.24392845       10       0.00105795       0.00059515       0.07792034
C        3.27441975       2.31494265      15.19636478       10       0.00057378       0.00028739       0.00038568
C        4.48584754       3.01774844      15.21097107       10       0.00145055       0.00004271       0.05989531
C        2.06393585       4.41796926      15.20828946       10       0.00042603       0.00193174       0.00061686
C        3.27437630       5.11683788      15.20328869       10      -0.00003412      -0.00066536       0.09269681
C        0.84782616       6.51789760      15.19636478       10      -0.00090569       0.00058290       0.00666251
C        2.06225252       7.21578260      15.21097107       10      -0.00093563       0.00025009       0.05797583
C       -0.36681011       8.61911195      15.19610975       10       0.00141452       0.00144825       0.22297307
C        0.85353646       9.31741169      15.24392845       10       0.00154170       0.00299901       0.07789223
C        6.90893321       0.21802877      15.25922050       10       0.00228853      -0.00050109       0.08073872
C        8.12355118       0.91927369      15.26615902       10       0.00195169       0.00149915       0.08229063
C        5.69688545       2.31911071      15.23288548       10       0.00253652       0.00071822       0.05144917
C        6.90969733       3.01836226      15.24683077       10       0.00289499       0.00111642       0.09868921
C        4.48483866       4.41812972      15.20828946       10       0.00029989      -0.00016180       0.00174134
C        5.69821098       5.11738726      15.21097107       10       0.00031638       0.00049389       0.05972342
C        3.27453792       6.51453034      15.20828946       10      -0.00103929      -0.00057757       0.00347778
C        4.48687325       7.21573712      15.21097107       10      -0.00129954       0.00163034       0.05767651
C        2.06256843       8.61398766      15.23288548       10       0.00170461       0.00059556       0.05256716
C        3.27454998       9.31465800      15.24683077       10       0.00102165       0.00432696       0.09883453
C        9.33463457       0.21854765      15.26454120       10      -0.00258910      -0.00235452       0.06748243
C       10.54556171       0.91921312      15.26615902       10       0.00379766       0.00100978       0.08187130
C        8.12209806       2.31847927      15.26454120       10       0.00213284       0.00021608       0.06355963
C        9.33441431       3.01692003      15.26615902       10       0.00297107      -0.00136790       0.08104086
C        6.90894933       4.41825051      15.23288548       10       0.00035267       0.00007580       0.05851769
C        8.12261355       5.11391782      15.24392845       10       0.00230246      -0.00170066       0.07320557
C        5.70132875       6.51795482      15.19636478       10      -0.00082002       0.00161733       0.01043870
C        6.91045115       7.21625040      15.16403107       10       0.00148395       0.00055019       0.01123393
C        4.48651562       8.61394758      15.23288548       10      -0.00061386       0.00011385       0.05534840
C        5.69552017       9.31731483      15.24392845       10       0.00461375       0.00477400       0.07629336
O       -2.77807905       8.63470771      13.34802130       11       0.00007303       0.00485451      -0.00193048
