131
Lattice="12.12 0.0 0.0 -6.06 10.496227893867395 0.0 0.0 0.0 40.0" Properties=species:S:1:pos:R:3:tags:I:1:forces:R:3 energy=-1204.9196010702751 stress="0.0028436816868884257 1.4514851000113317e-07 -3.314670388566975e-07 1.4514851000113317e-07 0.002844453867673038 -2.5665168647173074e-07 -3.314670388566975e-07 -2.5665168647173074e-07 0.002103925373585137" pbc="T T F"
C       -0.00104521       0.00048956      10.00491221        2      -0.00006221      -0.00003500       0.00034347
Ti       0.00040645       1.74920406       8.69254347        0      -0.00008917       0.00001106       0.00068863
Ti       1.51614337       0.87465617      11.31439855        0       0.00043641      -0.00107717       0.00027942
O        0.00027370       1.75060366      12.23159545        3      -0.00038810       0.00046577       0.09509405
O        1.51643352       0.87219369       7.77605543        1      -0.00001854      -0.00019171       0.00029054
C       -1.51478934       2.62406213      10.00381819        2       0.00011081       0.00007651       0.00050387
Ti      -1.51495748       4.37419193       8.69557908        0       0.00017489      -0.00030947       0.00113423
Ti       0.00035674       3.49964448      11.31051561        0       0.00051539       0.00057797      -0.00094113
O       -1.51416663       4.37359454      12.23159545        3       0.00023152      -0.00097469       0.11107483
O       -0.00085153       3.49898372       7.77226885        1       0.00003903       0.00007563       0.00022938
C       -3.03014942       5.24736866      10.00721313        2      -0.00007915      -0.00004796       0.00068054
Ti      -3.03130483       6.99602990       8.70124151        0       0.00012985      -0.00003173       0.00139760
Ti      -1.51543087       6.12729763      11.32328016        0      -0.00107052       0.00162061       0.00174157
O       -3.03279178       6.99308589      12.23159545        3      -0.00015006      -0.00062643       0.02999452
O       -1.51576108       6.12592719       7.78005778        1      -0.00003555      -0.00003633       0.00117309
C       -4.54548697       7.87136823      10.01106550        2      -0.00023882      -0.00010497       0.00020670
Ti      -4.54505964       9.62134517       8.70006049        0      -0.00011969       0.00002809       0.00093228
Ti      -3.02911447       8.74632515      11.33632300        0       0.00056554      -0.00021064       0.00274034
O       -4.54713924       9.62229599      12.23159545        3      -0.00090398       0.00046777       0.04078424
O       -3.02831819       8.74603698       7.78337024        1       0.00001044      -0.00008035       0.00117570
C        3.03053541       0.00030188      10.01224847        2      -0.00002902       0.00006776       0.00012503
Ti       3.02990252       1.74920686       8.69756741        0       0.00014980      -0.00011897       0.00057085
Ti       4.54449789       0.87602024      11.31768188        0      -0.00056601      -0.00224549       0.00144802
O        3.03004441       1.75220590      12.23159545        3      -0.00011617       0.00019524       0.10445086
O        4.54445698       0.87196740       7.77734595        1       0.00008708      -0.00047173       0.00084725
C        1.51518061       2.62389077      10.00381265        2       0.00028978      -0.00006631       0.00080770
Ti       1.51461202       4.37299524       8.69237797        0       0.00023179       0.00001452       0.00124160
Ti       3.03024413       3.49995238      11.30975715        0       0.00027629      -0.00031816      -0.00125170
O        1.51555471       4.37281958      12.23159545        3       0.00054847       0.00009983       0.09868764
O        3.02994677       3.49699717       7.77207404        1      -0.00001542      -0.00014283      -0.00004083
C        0.00135869       5.24754825      10.00494945        2       0.00023519       0.00001505       0.00075351
Ti       0.00210949       6.99623589       8.70028577        0       0.00004047      -0.00007208       0.00100725
Ti       1.51727631       6.12130179      11.30984327        0      -0.00083895       0.00042019      -0.00001954
O        0.00432173       6.99483022      12.23159545        3       0.00018468      -0.00014417       0.13565490
O        1.51311532       6.12384657       7.77266378        1      -0.00028185       0.00010573       0.00060447
C       -1.51511258       7.87216011      10.01998521        2      -0.00005660      -0.00003232       0.00002225
Ti      -1.51442460       9.62319614       8.70156784        0       0.00001000      -0.00019367       0.00131793
Ti      -0.00413940       8.74486100      11.32369875        0      -0.00205635       0.00018142       0.00182874
O       -1.51282544       9.62554396      12.23159545        3       0.00037164       0.00031942       0.02167573
O       -0.00312553       8.74605705       7.78033620        1      -0.00006448      -0.00002139       0.00115825
C        6.06042087       0.00038576      10.00786414        2       0.00000531      -0.00000167       0.00057281
Ti       6.06018461       1.74929042       8.69538282        0      -0.00009603      -0.00002436       0.00085531
Ti       7.57497472       0.87373250      11.31135754        0      -0.00069882      -0.00009287      -0.00056534
O        6.06151565       1.75165582      12.23159545        3       0.00011351       0.00066477       0.13613717
O        7.57406064       0.87355760       7.77322506        1      -0.00003853      -0.00011333       0.00026202
C        4.54505102       2.62487592      10.00445090        2      -0.00021667       0.00001980       0.00033353
Ti       4.54532825       4.37331247       8.69071681        0       0.00014840      -0.00013489       0.00128256
Ti       6.05943229       3.49908591      11.31036809        0      -0.00051056       0.00015744      -0.00128917
O        4.54512173       4.37367820      12.23159545        3      -0.00006108       0.00011306       0.13617104
O        6.06076767       3.49814026       7.77231583        1       0.00030873      -0.00018805       0.00002823
C        3.03054405       5.24781188      10.00272898        2       0.00010576      -0.00012992       0.00036372
Ti       3.03010939       6.99804642       8.69235352        0       0.00006316      -0.00023878       0.00119751
Ti       4.54387082       6.12213010      11.30987326        0       0.00016978      -0.00024522      -0.00146819
O        3.03048324       6.99708590      12.23159545        3       0.00018628      -0.00048751       0.12313499
O        4.54627146       6.12367819       7.77195444        1       0.00003879      -0.00002273      -0.00014228
C        1.51617643       7.87112158      10.00504717        2       0.00009951      -0.00027574       0.00072338
Ti       1.51438372       9.62110137       8.69595084        0       0.00022150      -0.00001350       0.00111714
Ti       3.02909974       8.74610615      11.31069495        0      -0.00031421      -0.00077770      -0.00095801
O        1.51477572       9.62034428      12.23159545        3       0.00090704       0.00019209       0.13724424
O        3.02918169       8.74754768       7.77233849        1      -0.00016594      -0.00010145       0.00021730
C        9.08996417      -0.00010992      10.00389546        2      -0.00005798      -0.00020157       0.00054787
Ti       9.08960672       1.74951758       8.69125066        0       0.00017637      -0.00012269       0.00084894
Ti      10.60565678       0.87442750      11.31139383        0       0.00004985      -0.00019694      -0.00138720
O        9.09042945       1.74926241      12.23159545        3       0.00008930      -0.00004020       0.09173396
O       10.60527798       0.87455623       7.77181625        1      -0.00002766      -0.00005352      -0.00031011
C        7.57536701       2.62386592      10.00326263        2      -0.00022921       0.00011329       0.00092111
Ti       7.57524706       4.37327804       8.69500216        0       0.00001478       0.00001750       0.00083513
Ti       9.09069375       3.49932435      11.31133874        0      -0.00031375       0.00054522      -0.00070217
O        7.57392634       4.37158321      12.23159545        3      -0.00059307      -0.00029588       0.15342788
O        9.09052092       3.49987211       7.77295744        1       0.00007201       0.00001795       0.00021225
C        6.05947175       5.24785628      10.00415252        2      -0.00014618       0.00012054       0.00042506
Ti       6.06028217       6.99777052       8.69700162        0       0.00008915      -0.00011844       0.00063940
Ti       7.57291599       6.12254931      11.31661659        0       0.00148107       0.00146624       0.00126512
O        6.05704889       6.99604778      12.23159545        3      -0.00041355      -0.00006159       0.10541992
O        7.57705762       6.12452329       7.77661454        1       0.00038816       0.00009198       0.00089061
C        4.54501064       7.87223040      10.00373235        2       0.00008706      -0.00024997       0.00075293
Ti       4.54529330       9.62132956       8.69253746        0      -0.00014339       0.00000324       0.00073029
Ti       6.05959950       8.74591169      11.31338542        0       0.00116445       0.00020202       0.00023309
O        4.54396845       9.62091513      12.23159545        3      -0.00055803      -0.00009666       0.09314898
O        6.06270898       8.74710031       7.77552764        1       0.00009550       0.00003383       0.00036186
C        0.04075761       0.07004654      17.39079945       10      -0.00208738      -0.00027213      -0.00644382
C        1.24964734       0.77079586      17.37550740       10       0.00412787      -0.00064528      -0.01235604
C       -1.16959399       2.16834928      17.39612015       10      -0.00093912      -0.00041733      -0.02004690
C        0.04244509       2.86806396      17.37840972       10      -0.00053691      -0.00073560      -0.01392758
C       -2.38113459       4.26504558      17.39079945       10      -0.00112856      -0.00160614      -0.01852947
C       -1.16959633       4.96189128      17.37550740       10      -0.00101954       0.00000397      -0.02335050
C       -3.58642694       6.36732104      17.32768870       10      -0.00025034      -0.00090027       0.00889332
C       -2.38041210       7.04900059      17.28586648       10      -0.00053442       0.00267504      -0.13044204
C       -4.80078691       8.47060562      17.32768870       10      -0.00240043      -0.00054955       0.01526910
C       -3.60764130       9.17406469      17.28586648       10       0.00517195      -0.00083798      -0.11663694
C        2.46477192       0.06297552      17.32768870       10       0.00188369      -0.00308646       0.01374309
C        3.67933584       0.76757080      17.29561002       10      -0.00029997      -0.00009716      -0.07392766
C        1.25489250       2.16891487      17.36446443       10      -0.00026501      -0.00099520      -0.01496704
C        2.46633398       2.86670861      17.34255002       10      -0.00092620       0.00138135      -0.03945460
C        0.04342389       4.26706944      17.36446443       10      -0.00070360      -0.00011794      -0.03885301
C        1.25351812       4.96739371      17.34255002       10      -0.00007286       0.00025887      -0.03325329
C       -1.17507500       6.36745911      17.32768870       10      -0.00220453       0.00019567       0.01523345
C        0.04260124       7.06689955      17.29561002       10      -0.00052206      -0.00041879      -0.05504538
C       -2.38027705       8.46551619      16.83306082       10       0.00047834       0.00093471      -0.22299640
C       -1.15358938       9.17398540      17.28586648       10      -0.00070276      -0.00060818      -0.12707706
C        4.89368738       0.06300110      17.32768870       10       0.00057605      -0.00036255       0.01018692
C        6.10841862       0.77037055      17.37550740       10       0.00049251       0.00033268      -0.02025849
C        3.67957640       2.16420414      17.32794373       10      -0.00040565       0.00097567      -0.02968414
C        4.89222731       2.86635825      17.34255002       10      -0.00009117       0.00139992      -0.02678146
C        2.46767369       4.26735498      17.33986841       10      -0.00048474       0.00115010      -0.04147986
C        3.67929057       4.96708826      17.33486764       10      -0.00141348       0.00040220      -0.03180428
C        1.25184319       6.36857668      17.32794373       10       0.00020015      -0.00004214      -0.03123278
C        2.46613092       7.06777800      17.34255002       10      -0.00034676       0.00082473      -0.03251250
C        0.03929861       8.47094196      17.32768870       10       0.00045984      -0.00003918       0.01611360
C        1.25928430       9.16886337      17.37550740       10       0.00029037       0.00136138      -0.01855365
C        7.31698278       0.07021914      17.39079945       10       0.00238637       0.00191484      -0.01715870
C        8.52889593       0.76976373      17.39773797       10       0.00220836       0.00196805      -0.02994685
C        6.10353713       2.16884279      17.36446443       10       0.00076961       0.00037839      -0.01716479
C        7.31561917       2.86751567      17.37840972       10       0.00129911       0.00035384      -0.02759198
C        4.89180136       4.26708296      17.33986841       10      -0.00174546       0.00122206      -0.02720164
C        6.10505153       4.96680764      17.34255002       10      -0.00159627       0.00041819      -0.02775792
C        3.67953712       6.36625059      17.33986841       10      -0.00140522      -0.00044506      -0.03433192
C        4.89177087       7.06760802      17.34255002       10      -0.00119458      -0.00053257      -0.04073173
C        2.46757633       8.46570993      17.36446443       10       0.00092577       0.00124211      -0.03270672
C        3.67858415       9.16589483      17.37840972       10       0.00046643       0.00129709      -0.01721474
C        9.73849983       0.06915221      17.39612015       10      -0.00108810      -0.00077843      -0.02656437
C       10.94822027       0.77004703      17.39773797       10       0.00361823       0.00050727      -0.01517046
C        8.52675860       2.16820832      17.39612015       10       0.00116591      -0.00023611      -0.02460618
C        9.73884718       2.86552011      17.39773797       10       0.00089672      -0.00165681      -0.03384368
C        7.31492521       4.26671354      17.36446443       10      -0.00201261      -0.00063282      -0.00514892
C        8.52830840       4.96164177      17.37550740       10       0.00008765      -0.00266034      -0.01892765
C        6.10683383       6.36803724      17.32794373       10      -0.00102059       0.00019124      -0.03493290
C        7.31617580       7.06655568      17.29561002       10       0.00058349      -0.00087216      -0.07548495
C        4.89042656       8.46552935      17.36446443       10      -0.00151445      -0.00122073      -0.02185938
C        6.09849771       9.16892715      17.37550740       10       0.00337323       0.00135624      -0.01385420
O       -2.37005234       8.46273412      15.50592561       11      -0.00149811       0.00135849      -0.00325160
