131
Lattice="12.12 0.0 0.0 -6.06 10.496227893867395 0.0 0.0 0.0 40.0" Properties=species:S:1:pos:R:3:tags:I:1:forces:R:3 energy=-1203.7558038591492 stress="0.0027595081438247775 3.755239462718178e-07 -1.5991087946766573e-06 3.755239462718178e-07 0.002758407813891122 -5.096491553877054e-06 -1.5991087946766573e-06 -5.096491553877054e-06 0.003007953096425517" pbc="T T F"
C        0.23083930      -0.07550669       9.93861940        2       0.00143717      -0.00058017       0.00472369
Ti       0.25584093       1.65458682       8.67891255        0       0.00290676      -0.00188259      -0.00033128
Ti       1.76658219       0.81520349      11.29153626        0      -0.00510347       0.00317161      -0.00274719
O        0.22788586       1.67645445      12.23159545        3       0.00362366      -0.00179825      -0.26682535
O        1.79182930       0.76442425       7.79694359        1       0.00126056       0.00158410       0.00168306
C       -1.25939915       2.53039849       9.94047788        2       0.00329527       0.00051297       0.00585118
Ti      -1.25993993       4.28217150       8.67974707        0       0.00042976       0.00167956      -0.00341046
Ti       0.25313158       3.40264788      11.28149167        0      -0.00192169       0.00135206       0.00483795
O       -1.25489159       4.24495994      12.23159545        3       0.00170293      -0.00301639      -0.26485670
O        0.26144813       3.40838951       7.75303503        1      -0.00165225      -0.00090596       0.00378243
C       -2.77063543       5.12405456       9.93735622        2      -0.00202495      -0.00461169       0.00404868
Ti      -2.76983101       6.89721171       8.75881373        0      -0.00459954       0.00030989      -0.00456082
Ti      -1.23132117       6.00760400      11.29211088        0       0.00141679      -0.00075816       0.00074211
O       -2.77055069       6.66085103      12.23159545        3      -0.00432981       0.00233154      -0.57475958
O       -1.26189181       6.05730871       7.79805614        1       0.00027149      -0.00291242      -0.00112684
C       -4.26461101       7.79271175      10.06776782        2       0.00033276      -0.00069305       0.00592673
Ti      -4.29403139       9.53488324       8.75743154        0       0.00555619      -0.00450371      -0.00182751
Ti      -2.77392453       8.64978702      11.59421266        0       0.00702252      -0.00657706      -0.00184070
O       -4.48929373       9.64866914      12.23159545        3      -0.00256260       0.00256742      -0.55334242
O       -2.77170895       8.65480381       7.86573818        1      -0.00055649      -0.00154857       0.00870589
C        3.28755090      -0.11738629      10.06527286        2       0.00021257       0.00031884       0.00785712
Ti       3.28862979       1.66204761       8.71599751        0      -0.00074497       0.00156744      -0.00228942
Ti       4.80983833       0.81384829      11.29259502        0       0.00389591      -0.00462913      -0.00106589
O        3.28844223       1.68477372      12.23159545        3      -0.00073382       0.00213408      -0.13759667
O        4.78488911       0.76294859       7.79806567        1      -0.00097038       0.00396073      -0.00091497
C        1.76781458       2.54250685       9.96000647        2       0.00038430      -0.00238122       0.00462373
Ti       1.77038216       4.27792056       8.68461644        0      -0.00018905       0.00366580      -0.00055566
Ti       3.28971209       3.42202958      11.29170111        0      -0.00410087       0.00296615      -0.00233950
O        1.77184165       4.27933886      12.23159545        3       0.00005422       0.00070374      -0.18771600
O        3.28944521       3.38953247       7.77268190        1      -0.00101873       0.00599503       0.00114873
C        0.26564567       5.14624393       9.96005513        2      -0.00091812      -0.00328760       0.00252236
Ti       0.26634652       6.90148083       8.71532945        0      -0.00406382       0.00109964       0.00280874
Ti       1.78846871       6.02273561      11.29203918        0      -0.00085256      -0.00015132      -0.00139627
O        0.28278135       6.89109336      12.23159545        3       0.00172125      -0.00116240      -0.14521518
O        1.76109460       6.03874079       7.77256615        1       0.00106929      -0.00128410       0.00301894
C       -1.27969379       7.79235231      10.06835972        2       0.00276683      -0.00223224      -0.00155382
Ti      -1.24947306       9.53273083       8.75829814        0      -0.00279399       0.00224410      -0.00445867
Ti       0.28678735       8.64627465      11.29410262        0       0.00226123      -0.00338862      -0.00076537
O       -1.05785422       9.64532428      12.23159545        3      -0.00030742       0.00442378      -0.54191145
O        0.23297503       8.64728316       7.79894354        1       0.00155414      -0.00047089      -0.00155992
C        6.34467877      -0.07731053       9.94043100        2       0.00143626       0.00331534       0.00541824
Ti       6.31917675       1.65445832       8.68015004        0      -0.00115415      -0.00104542      -0.00408647
Ti       7.84115014       0.78684429      11.27636125        0      -0.00081919      -0.00178984       0.00088877
O        6.34833030       1.67530879      12.23159545        3      -0.00151864       0.00035214      -0.26444617
O        7.82880837       0.78016428       7.74729162        1       0.00311216      -0.00045591       0.00058362
C        4.80992214       2.54161635       9.96000248        2      -0.00080115       0.00035345       0.00717677
Ti       4.80807689       4.27929966       8.68490293        0       0.00067851      -0.00091324      -0.00232512
Ti       6.32545294       3.40181265      11.28090247        0       0.00204244       0.00072759       0.00424838
O        4.80731309       4.27934947      12.23159545        3      -0.00459014       0.00056082      -0.18933199
O        6.31660111       3.40779627       7.75320019        1      -0.00054629      -0.00050431       0.00579985
C        3.28997825       5.15574394       9.96558757        2      -0.00210779      -0.00000843       0.00288783
Ti       3.29039179       6.91082262       8.68618584        0      -0.00412636      -0.00228102      -0.00106625
Ti       4.78992135       6.02232786      11.29197513        0      -0.00176858       0.00177863      -0.00066392
O        3.28946654       6.90892467      12.23159545        3      -0.00200883      -0.00209901      -0.19294325
O        4.81878602       6.03933661       7.77266313        1      -0.00572137      -0.00274638       0.00116630
C        1.78530511       7.77989876       9.96047355        2       0.00090713       0.00138165       0.00242992
Ti       1.77133879       9.53210505       8.68101127        0      -0.00298905      -0.00312181      -0.00383880
Ti       3.28865856       8.66302561      11.28088305        0      -0.00289130      -0.00062375       0.00375749
O        1.80401175       9.54663247      12.23159545        3       0.00214076      -0.00081928      -0.26751075
O        3.28847440       8.65261906       7.75379066        1      -0.00094216       0.00111876       0.00339484
C        9.34802092      -0.08829247       9.94160215        2       0.00010304      -0.00390474       0.00501511
Ti       9.34687742       1.65847236       8.67714527        0       0.00556511      -0.00428756      -0.00268923
Ti      10.85445751       0.78807800      11.27625257        0       0.00509859      -0.00383391       0.00015200
O        9.34805109       1.65754810      12.23159545        3       0.00042402      -0.00173886      -0.30889494
O       10.86585679       0.78126726       7.74561533        1       0.00252215      -0.00201439       0.00855544
C        7.83619314       2.52998092       9.94125463        2      -0.00277926       0.00058522       0.00387578
Ti       7.83705522       4.28336373       8.67967392        0      -0.00073803      -0.00090655      -0.00370922
Ti       9.34896353       3.39622675      11.27666652        0      -0.00114723       0.00163414       0.00124443
O        7.83293226       4.24482207      12.23159545        3      -0.00215381      -0.00084941      -0.26673088
O        9.34833221       3.41173912       7.74636030        1       0.00116956      -0.00428412       0.00119392
C        6.31356792       5.14619604       9.95953750        2      -0.00185147      -0.00175611       0.00657832
Ti       6.31422912       6.90340209       8.71626165        0       0.00010915      -0.00084949      -0.00067592
Ti       7.80964043       6.00808182      11.29306455        0       0.00362409      -0.00248685       0.00176004
O        6.29536781       6.89187453      12.23159545        3      -0.00427100      -0.00202754      -0.14746522
O        7.84113052       6.05776706       7.79805254        1      -0.00453670      -0.00318187      -0.00065013
C        4.79228399       7.78087770       9.95998534        2       0.00122603      -0.00080560       0.00413069
Ti       4.80555095       9.53315190       8.67956400        0       0.00232457      -0.00248741      -0.00002253
Ti       6.28960393       8.64709872      11.29386830        0      -0.00641357      -0.00204487      -0.00206180
O        4.77191526       9.54772240      12.23159545        3       0.00268690      -0.00303107      -0.27013746
O        6.34403291       8.64847712       7.79768815        1      -0.00123900      -0.00298567       0.00195212
C       -0.36075513       0.21189064      15.40132577       10      -0.00339089      -0.00019907       0.06785004
C        0.84681199       0.91397419      15.38603372       10      -0.00041092       0.00308221       0.06019438
C       -1.57382263       2.31254715      15.40664647       10      -0.00122751       0.00186117       0.07837788
C       -0.36174405       3.01228430      15.38893604       10      -0.00001116       0.00097516       0.08046674
C       -2.78648867       4.41336172      15.40132577       10       0.00007780       0.00194525       0.07060447
C       -1.57474229       5.10813157      15.38603372       10       0.00221714      -0.00034804       0.06036793
C       -3.99295099       6.51406650      15.33821502       10      -0.00032113       0.00088629       0.19402800
C       -2.78663142       7.19092247      15.29639280       10       0.00169422      -0.00053647      -0.39796427
C       -5.20499498       8.61294195      15.33821502       10      -0.00224611       0.00186637       0.19883672
C       -4.01667657       9.31967151      15.29639280       10       0.00322234       0.00299743      -0.35685398
C        2.06165946       0.20662163      15.33821502       10      -0.00230199      -0.00060174       0.19719853
C        3.27375380       0.91347983      15.30613634       10      -0.00241512       0.00007219       0.01614773
C        0.85073551       2.31291188      15.37499075       10      -0.00036713       0.00204498       0.07610864
C        2.06165098       3.01181658      15.35307634       10       0.00039171       0.00183490       0.09279782
C       -0.36114521       4.41186941      15.37499075       10       0.00133660       0.00033200       0.08113522
C        0.84976230       5.11078968      15.35307634       10       0.00075513       0.00126790       0.09262589
C       -1.58002778       6.51416481      15.33821502       10       0.00042756      -0.00143398       0.19325870
C       -0.36158322       7.20984622      15.30613634       10      -0.00075952       0.00111907       0.01578009
C       -2.78621660       8.61106786      14.84358714       10       0.00260210       0.00049547       1.76274695
C       -1.55592203       9.32001166      15.29639280       10       0.00183151       0.00267857      -0.34002662
C        4.48589458       0.20669378      15.33821502       10      -0.00064614       0.00047795       0.19929800
C        5.70065462       0.91414781      15.38603372       10      -0.00043530       0.00125704       0.05943333
C        3.27350022       2.30925335      15.33847005       10       0.00028021       0.00035398       0.02420778
C        4.48527791       3.01190207      15.35307634       10       0.00069282       0.00058145       0.09035931
C        2.06279955       4.41179026      15.35039473       10       0.00073434       0.00177690       0.05233065
C        3.27336010       5.11057948      15.34539396       10       0.00027858       0.00029122       0.12938081
C        0.84702256       6.51160203      15.33847005       10      -0.00061339       0.00116513       0.02618460
C        2.06160103       7.20956968      15.35307634       10      -0.00027698       0.00097224       0.08651847
C       -0.36778171       8.61305623      15.33821502       10       0.00175079       0.00122465       0.20025584
C        0.85251960       9.31130947      15.38603372       10       0.00146238       0.00172817       0.05835325
C        6.90824220       0.21199751      15.40132577       10      -0.00008087      -0.00020776       0.06724327
C        8.12295216       0.91332390      15.40826429       10      -0.00029040       0.00150829       0.06548902
C        5.69634706       2.31301762      15.37499075       10       0.00123246       0.00119039       0.07380585
C        6.90886029       3.01230711      15.38893604       10       0.00143318       0.00152237       0.08038947
C        4.48398047       4.41191309      15.35039473       10       0.00016141       0.00046695       0.05216588
C        5.69709701       5.11081352      15.35307634       10       0.00023619       0.00122371       0.09059543
C        3.27347096       6.50833361      15.35039473       10      -0.00010059       0.00026446       0.05155247
C        4.48536776       7.20952246      15.35307634       10      -0.00011793       0.00155416       0.08694621
C        2.06178328       8.60799015      15.37499075       10       0.00182893       0.00121094       0.07415975
C        3.27360660       9.30848926      15.38893604       10       0.00048467       0.00383913       0.07998355
C        9.33377678       0.21224016      15.40664647       10      -0.00214909      -0.00022328       0.08248146
C       10.54448302       0.91330867      15.40826429       10       0.00232114       0.00079212       0.06508111
C        8.12111239       2.31257626      15.40664647       10       0.00091617       0.00099941       0.07954042
C        9.33357810       3.01068964      15.40826429       10       0.00178400       0.00056569       0.06413298
C        6.90806015       4.41185263      15.37499075       10      -0.00015853       0.00063654       0.08155056
C        8.12165849       5.10802699      15.38603372       10       0.00137907      -0.00064792       0.05965326
C        5.69998153       6.51163138      15.33847005       10       0.00060949       0.00193449       0.02781255
C        6.90860388       7.20977014      15.30613634       10       0.00206451       0.00102961       0.01594137
C        4.48529752       8.60793952      15.37499075       10      -0.00096883       0.00084627       0.07676220
C        5.69461863       9.31121290      15.38603372       10       0.00229380       0.00305886       0.05828073
O       -2.77945631       8.63282175      13.47585333       11       0.00100279       0.00253092      -0.00384388
