131
Lattice="12.12 0.0 0.0 -6.06 10.496227893867395 0.0 0.0 0.0 40.0" Properties=species:S:1:pos:R:3:tags:I:1:forces:R:3 energy=-1202.437930301345 stress="0.002679688485949482 -1.581776281143101e-07 -4.702795175591288e-07 -1.581776281143101e-07 0.002679763985412175 1.001021798852256e-06 -4.702795175591288e-07 1.001021798852256e-06 0.003083551552997225" pbc="T T F"
C        0.22405829      -0.09525500       9.93643529        2       0.00275089      -0.00044080       0.00073918
Ti       0.24694920       1.63516773       8.69004142        0       0.00056018       0.00186323      -0.00666314
Ti       1.75311496       0.79600580      11.30848499        0      -0.00010801      -0.00105757       0.00009787
O        0.22224745       1.66290815      12.23159545        3       0.00336096      -0.00085178      -0.23748216
O        1.78279391       0.75101239       7.79665619        1       0.00153304       0.00142372      -0.00138433
C       -1.26661857       2.51146185       9.94656207        2       0.00097646      -0.00102417       0.00184670
Ti      -1.26748690       4.25977271       8.68980788        0       0.00205718      -0.00011958      -0.00510208
Ti       0.25462497       3.38916227      11.28301654        0      -0.00578278      -0.00275819       0.00018324
O       -1.25594289       4.22572200      12.23159545        3      -0.00217109      -0.00313624      -0.23681269
O        0.25646749       3.38958729       7.75802824        1      -0.00199532       0.00253071       0.00080170
C       -2.77766432       5.10637302       9.93555634        2      -0.00078228      -0.00337435       0.00629923
Ti      -2.77730275       6.87407002       8.73911871        0      -0.00233522      -0.00301138      -0.00798658
Ti      -1.24180457       5.98469413      11.30839042        0       0.00222875      -0.00188013       0.00181227
O       -2.77838637       6.60816835      12.23159545        3       0.00141326      -0.00297193      -0.82432946
O       -1.26473734       6.03236103       7.79700722        1      -0.00046374      -0.00264779      -0.00345438
C       -4.28167484       7.76805115      10.04925881        2       0.00200859       0.00205062       0.00228044
Ti      -4.30432303       9.51665677       8.73939787        0       0.00026459       0.00026354      -0.00787016
Ti      -2.77783516       8.63615819      11.36738433        0      -0.00067926       0.00065536      -0.00679416
O       -4.53481696       9.64980454      12.23159545        3      -0.00029796       0.00137856      -0.82139976
O       -2.77818372       8.63607965       7.84458322        1       0.00101717      -0.00162697      -0.00100027
C        3.28206738      -0.12415878      10.04932103        2      -0.00251174      -0.00248632       0.00196523
Ti       3.28210660       1.64405055       8.71969216        0      -0.00015489       0.00352218      -0.00846969
Ti       4.80992731       0.79587208      11.30753998        0       0.00358218      -0.00231508       0.00279523
O        3.28198061       1.66044438      12.23159545        3       0.00061598       0.00350071      -0.17423464
O        4.78050188       0.75008685       7.79570321        1       0.00174076       0.00527374       0.00148323
C        1.76136295       2.52255964       9.96641654        2       0.00219167      -0.00086773       0.00344982
Ti       1.76275065       4.25814640       8.68685975        0      -0.00114680       0.00236338      -0.00101574
Ti       3.28329499       3.40840024      11.27564700        0      -0.00296721       0.00324399       0.00339789
O        1.76794515       4.26153164      12.23159545        3      -0.00279987       0.00033741      -0.17398594
O        3.28255031       3.37763976       7.77218682        1      -0.00142262       0.00186467       0.00379026
C        0.25836204       5.12691941       9.96701870        2      -0.00110085      -0.00063573      -0.00003722
Ti       0.25917810       6.88208080       8.72046634        0       0.00080892      -0.00044470      -0.00913256
Ti       1.78663747       6.00014639      11.27593283        0      -0.00344270       0.00304051       0.00331740
O        0.27218326       6.87482162      12.23159545        3       0.00223460      -0.00169685      -0.17281055
O        1.75959103       6.01541121       7.77324025        1       0.00189370      -0.00016857      -0.00083565
C       -1.27395458       7.76766093      10.05030348        2      -0.00496080       0.00210949      -0.00309706
Ti      -1.25159055       9.51599640       8.73887321        0       0.00145498       0.00401629      -0.00737718
Ti       0.28657405       8.63061746      11.30831190        0       0.00260476       0.00061784       0.00279448
O       -1.02077780       9.65055004      12.23159545        3       0.00299174      -0.00210841      -0.82783895
O        0.23335271       8.62659738       7.79685062        1       0.00263447       0.00271623      -0.00324218
C        6.33917522      -0.09595992       9.93507101        2       0.00226704       0.00214206       0.00650993
Ti       6.31666308       1.63490344       8.68912377        0      -0.00085483       0.00279000      -0.00511403
Ti       7.84208322       0.77211818      11.25944693        0       0.00049349      -0.00022771       0.00321170
O        6.34057849       1.66250955      12.23159545        3       0.00365462       0.00076824      -0.24086760
O        7.82502860       0.76199945       7.74578264        1      -0.00068191      -0.00199382       0.00001064
C        4.80315660       2.52211105       9.96572406        2       0.00028852       0.00233362       0.00390670
Ti       4.80273301       4.25855339       8.68611757        0      -0.00081082       0.00130043      -0.00164270
Ti       6.31098210       3.38835567      11.28236312        0       0.00262610      -0.00047725       0.00103623
O        4.79889968       4.26140307      12.23159545        3      -0.00495550       0.00209620      -0.17894884
O        6.30899917       3.38958046       7.75700005        1      -0.00305680       0.00081396       0.00374450
C        3.28323938       5.13600701       9.97406978        2      -0.00219013       0.00135110       0.00616664
Ti       3.28282836       6.89151841       8.68659914        0      -0.00136419       0.00103069      -0.00073096
Ti       4.77958831       6.00035115      11.27527861        0      -0.00300791       0.00095144       0.00488455
O        3.28311349       6.88587370      12.23159545        3      -0.00206020       0.00196840      -0.17532713
O        4.80548152       6.01565633       7.77203538        1      -0.00162831       0.00108411       0.00287584
C        1.77894710       7.76019233       9.96684344        2      -0.00039643       0.00221557       0.00002955
Ti       1.76715694       9.51569975       8.68950310        0       0.00071560      -0.00203359      -0.00463541
Ti       3.28207600       8.63229654      11.28274688        0      -0.00152110       0.00614661       0.00127855
O        1.80264801       9.52257548      12.23159545        3       0.00082391       0.00326094      -0.23914512
O        3.28240498       8.63029288       7.75776328        1      -0.00305280       0.00217079       0.00086197
C        9.34151733      -0.10741836       9.94640155        2       0.00120174       0.00014550       0.00106918
Ti       9.34155927       1.63883145       8.67435110        0       0.00214740      -0.00155655      -0.00681214
Ti      10.83994076       0.77314878      11.25926947        0       0.00734202      -0.00331617       0.00494555
O        9.34063924       1.63903518      12.23159545        3       0.00513890      -0.00286554      -0.24654206
O       10.85910371       0.76233755       7.74606393        1      -0.00016460      -0.00009487       0.00169567
C        7.83057558       2.51102861       9.94601141        2      -0.00217122       0.00116450       0.00204477
Ti       7.83210255       4.26050219       8.68945634        0      -0.00220615      -0.00245845      -0.00636418
Ti       9.34212516       3.37047700      11.25949177        0      -0.00096760      -0.00049251       0.00365674
O        7.82028877       4.22581984      12.23159545        3       0.00089839      -0.00299279      -0.24080461
O        9.34231826       3.39064720       7.74600395        1       0.00136731       0.00019140      -0.00024920
C        6.30702643       5.12731556       9.96557196        2      -0.00172032      -0.00197956       0.00511081
Ti       6.30615227       6.88307625       8.71916029        0      -0.00007737      -0.00043153      -0.00618221
Ti       7.80537974       5.98487204      11.30755446        0       0.00381974      -0.00250610       0.00405992
O        6.29253242       6.87548164      12.23159545        3      -0.00288146      -0.00315748      -0.17490481
O        7.83032288       6.03308142       7.79596861        1      -0.00320093      -0.00466568      -0.00036407
C        4.78565772       7.76083255       9.96607453        2       0.00177153      -0.00125043       0.00396316
Ti       4.79679547       9.51611751       8.68980250        0      -0.00081319      -0.00089457      -0.00634056
Ti       6.27675590       8.63161968      11.30825086        0       0.00058821      -0.00184070       0.00096817
O        4.76050855       9.52346593      12.23159545        3       0.00294965      -0.00132483      -0.23751174
O        6.33062308       8.62818361       7.79638932        1      -0.00054387      -0.00164434      -0.00110448
C       -0.35012171       0.24213763      15.11711524       10      -0.00844810      -0.00352991       0.09718630
C        0.85660133       0.94449300      15.10182319       10      -0.00078916       0.00130600       0.09180203
C       -1.56409221       2.34248167      15.12243594       10      -0.00108486       0.00271037       0.03056158
C       -0.35192028       3.04239213      15.10472551       10       0.00193406      -0.00064070       0.09231991
C       -2.77614981       4.44383690      15.11711524       10      -0.00242605       0.00013693       0.09703602
C       -1.56447862       5.13779722      15.10182319       10       0.00020739      -0.00125301       0.09182086
C       -3.98234176       6.54406245      15.05400449       10      -0.00197190       0.00114798       0.26394371
C       -2.77616728       7.21922279      15.01218227       10       0.00165306      -0.00037352      -0.42484461
C       -5.19444264       8.64352553      15.05400449       10      -0.00562385       0.00076730       0.26377636
C       -4.00668052       9.35055245      15.01218227       10       0.00641447       0.00549239      -0.43408290
C        2.07190460       0.23663093      15.05400449       10      -0.00367144      -0.00300507       0.26373351
C        3.28395199       0.94211216      15.02192581       10      -0.00301631      -0.00118903       0.05716310
C        0.86137968       2.34301760      15.09078022       10       0.00052571      -0.00164236       0.04504962
C        2.07233006       3.04156752      15.06886581       10       0.00001540       0.00045909       0.05249519
C       -0.35086930       4.44281137      15.09078022       10      -0.00140557       0.00000819       0.04438789
C        0.85962112       5.14224952      15.06886581       10      -0.00143718      -0.00053411       0.05298974
C       -1.56992005       6.54419034      15.05400449       10       0.00070857      -0.00242426       0.26429127
C       -0.35289435       7.24111895      15.02192581       10      -0.00044600       0.00027941       0.05745872
C       -2.77618235       8.64008511      14.55937661       10      -0.00107899      -0.00123857       2.71844769
C       -1.54571810       9.35056480      15.01218227       10      -0.00272612       0.00230549      -0.43496085
C        4.49594753       0.23661658      15.05400449       10      -0.00044950      -0.00303385       0.26379920
C        5.71109020       0.94455154      15.10182319       10       0.00127322      -0.00068370       0.09129517
C        3.28381603       2.33867905      15.05425952       10       0.00032919      -0.00049659       0.00589104
C        4.49521560       3.04167105      15.06886581       10       0.00066780      -0.00096460       0.05287813
C        2.07339643       4.44259414      15.06618420       10      -0.00045052       0.00155371      -0.03105512
C        3.28386763       5.14157358      15.06118343       10      -0.00054972      -0.00151134       0.06326810
C        0.85662331       6.54289634      15.05425952       10      -0.00085386      -0.00032535       0.00467095
C        2.07111331       7.24059145      15.06886581       10      -0.00156309      -0.00020185       0.05290457
C       -0.35785857       8.64353289      15.05400449       10       0.00031272       0.00052832       0.26407274
C        0.86278125       9.34201308      15.10182319       10      -0.00004278       0.00380666       0.09102879
C        6.91782350       0.24214720      15.11711524       10       0.00299876      -0.00176173       0.09813866
C        8.13265277       0.94354270      15.12405376       10       0.00282606       0.00044070       0.08631727
C        5.70610222       2.34300925      15.09078022       10       0.00141278      -0.00015236       0.04499655
C        6.91936537       3.04236335      15.10472551       10       0.00133277       0.00085164       0.09242686
C        4.49430767       4.44269837      15.06618420       10       0.00029525      -0.00085846      -0.03142938
C        5.70811715       5.14228531      15.06886581       10       0.00053032      -0.00063789       0.05311047
C        3.28395247       6.53931096      15.06618420       10      -0.00155416      -0.00072178      -0.03153771
C        4.49676414       7.24056793      15.06886581       10      -0.00158004       0.00133259       0.05268986
C        2.07147680       8.63858951      15.09078022       10       0.00017774      -0.00012410       0.04455037
C        3.28373880       9.33959323      15.10472551       10       0.00156389       0.00337992       0.09180962
C        9.34380767       0.24316592      15.12243594       10      -0.00319237      -0.00562296       0.03007926
C       10.55483431       0.94348785      15.12405376       10       0.00469005       0.00114065       0.08639586
C        8.13155835       2.34256667      15.12243594       10       0.00049220      -0.00042882       0.03053553
C        9.34373118       3.04112619      15.12405376       10       0.00217784      -0.00267383       0.08650861
C        6.91849740       4.44275910      15.09078022       10       0.00092401       0.00029166       0.04409205
C        8.13208634       5.13772926      15.10182319       10       0.00304159      -0.00117624       0.09165449
C        5.71124951       6.54289185      15.05425952       10      -0.00189821       0.00046727       0.00450443
C        6.92068756       7.24112394      15.02192581       10       0.00074868      -0.00066080       0.05721426
C        4.49606611       8.63859466      15.09078022       10       0.00081984      -0.00134025       0.04427462
C        5.70470429       9.34196603      15.10182319       10       0.00740108       0.00578633       0.09123548
O       -2.77655692       8.63720097      13.22121798       11      -0.00278292       0.00214546      -0.00003239
