131
Lattice="12.12 0.0 0.0 -6.06 10.496227893867395 0.0 0.0 0.0 40.0" Properties=species:S:1:pos:R:3:tags:I:1:forces:R:3 energy=-1205.3780156575651 stress="0.0028276534029895387 2.2732498620411737e-07 -5.730993850680191e-07 2.2732498620411737e-07 0.0028281978232472444 3.92864367606492e-07 -5.730993850680191e-07 3.92864367606492e-07 0.0028164263512675185" pbc="T T F"
C        0.23238707      -0.09720735       9.97009816        2       0.00298322      -0.00236319       0.00033636
Ti       0.25183791       1.63842159       8.67922007        0       0.00018030       0.00499042      -0.00315164
Ti       1.77553742       0.79209217      11.27086056        0      -0.00110254       0.00193189      -0.00034376
O        0.23765108       1.64928429      12.23159545        3      -0.00021462      -0.00011669      -0.11087377
O        1.77195753       0.75615270       7.77234737        1      -0.00133889      -0.00027924      -0.00036552
C       -1.26409271       2.51459760       9.97476770        2       0.00239731      -0.00171368       0.00031287
Ti      -1.26335163       4.26386395       8.67801720        0       0.00387044       0.00165386      -0.00082597
Ti       0.24917222       3.38740468      11.32155502        0      -0.00339539       0.00080872       0.00139387
O       -1.26177276       4.24752904      12.23159545        3       0.00158399      -0.00289598      -0.11377502
O        0.25429665       3.38953628       7.76212489        1      -0.00044150       0.00107054      -0.00199724
C       -2.77642226       5.11619075       9.96953742        2      -0.00186089       0.00139414       0.00308620
Ti      -2.77580980       6.87801358       8.72422180        0       0.00148363      -0.00158498      -0.00275022
Ti      -1.23429512       6.00768463      11.27028179        0      -0.00230717      -0.00414097       0.00103821
O       -2.77628086       6.72631727      12.23159545        3      -0.00070284      -0.00133066       0.12396897
O       -1.26705780       6.02177901       7.77119993        1       0.00013082      -0.00334235       0.00533414
C       -4.31257423       7.75135676      10.01106021        2      -0.00070756      -0.00060805       0.00040912
Ti      -4.30050880       9.51725807       8.72456353        0       0.00207217      -0.00043103       0.00013569
Ti      -2.77767375       8.63799034      12.13703283        0       0.00456862      -0.00088690       0.00249296
O       -4.43336229       9.59402068      12.23159545        3       0.00094796      -0.00111099       0.13040614
O       -2.77660501       8.63756459       7.85786912        1      -0.00252638       0.00139529      -0.00202611
C        3.28270911      -0.08589101      10.01136196        2       0.00062236       0.00281894      -0.00086878
Ti       3.28303107       1.62842800       8.69863908        0       0.00108086       0.00251685      -0.00100677
Ti       4.79012929       0.79078495      11.27053773        0       0.00212719       0.00498480       0.00074581
O        3.28332925       1.65238651      12.23159545        3      -0.00147121       0.00102914      -0.04283135
O        4.79380646       0.75531171       7.77230027        1       0.00170866       0.00388351      -0.00033350
C        1.76077215       2.52571547       9.98110280        2      -0.00114701       0.00129897       0.00175714
Ti       1.76998497       4.26378701       8.67784667        0      -0.00268068       0.00172901       0.00327679
Ti       3.28316583       3.38768569      11.30883576        0       0.00272530      -0.00222309      -0.00122849
O        1.76679700       4.26321174      12.23159545        3      -0.00026807      -0.00072398      -0.09855463
O        3.28368284       3.37979229       7.76658479        1      -0.00121530       0.00076195      -0.00088593
C        0.25959444       5.12658476       9.98061425        2       0.00003319       0.00005012       0.00175711
Ti       0.24559949       6.89258934       8.69781829        0      -0.00631725       0.00374110      -0.00242326
Ti       1.76725368       6.01404886      11.30787448        0      -0.00145012       0.00309818       0.00163676
O        0.26481765       6.88191305      12.23159545        3      -0.00202414      -0.00083114      -0.04502261
O        1.76189675       6.01692218       7.76591306        1      -0.00190833       0.00201154      -0.00028571
C       -1.23982857       7.75010289      10.01017150        2      -0.00220104       0.00187782       0.00224665
Ti      -1.25261134       9.51650485       8.72446339        0       0.00247830      -0.00033104      -0.00279020
Ti       0.27196280       8.61725423      11.27021009        0       0.00428028       0.00200000       0.00202712
O       -1.12140507       9.59281083      12.23159545        3       0.00028763      -0.00015784       0.12547721
O        0.24352088       8.63825459       7.77190100        1       0.00252769       0.00111895       0.00223685
C        6.33303635      -0.09811094       9.97020454        2      -0.00113074       0.00034218       0.00044776
Ti       6.31317640       1.63911980       8.67873040        0       0.00148645       0.00095908      -0.00119943
Ti       7.82355399       0.76337700      11.31831668        0       0.00004410      -0.00233746       0.00454646
O        6.32744564       1.64919213      12.23159545        3       0.00119982      -0.00064343      -0.11158686
O        7.82732728       0.76527389       7.76277335        1       0.00143229       0.00106443       0.00143439
C        4.80578087       2.52533777       9.98062742        2      -0.00089033       0.00222591       0.00289587
Ti       4.79731530       4.26438948       8.67869086        0      -0.00153109       0.00223274       0.00078286
Ti       6.31713763       3.38737072      11.32156744        0       0.00001368      -0.00174087       0.00118886
O        4.79962574       4.26343125      12.23159545        3       0.00063699      -0.00040781      -0.09892771
O        6.31232841       3.38996697       7.76167506        1       0.00035546      -0.00033208      -0.00138198
C        3.28367283       5.13850417       9.97864440        2       0.00016821      -0.00004765      -0.00212439
Ti       3.28411383       6.88668478       8.67788757        0      -0.00143289       0.00183820       0.00274149
Ti       4.80006201       6.01454128      11.30845050        0      -0.00051411      -0.00051702       0.00085011
O        3.28346030       6.88991428      12.23159545        3       0.00013164       0.00046178      -0.09986620
O        4.80649002       6.01759300       7.76660463        1      -0.00021018       0.00183947      -0.00127898
C        1.78218756       7.76351689       9.98060322        2      -0.00097215      -0.00026047       0.00125672
Ti       1.76801344       9.51371976       8.67827908        0      -0.00079040      -0.00372641      -0.00126801
Ti       3.28304478       8.64218559      11.32175593        0      -0.00309773       0.00058883       0.00127945
O        1.78269803       9.52075684      12.23159545        3       0.00381394       0.00014003      -0.11331155
O        3.28361576       8.63655789       7.76188439        1      -0.00095976       0.00010966      -0.00022831
C        9.34232133      -0.10715121       9.97492075        2       0.00279079      -0.00069995      -0.00035300
Ti       9.34221301       1.64079509       8.70399002        0       0.00146021      -0.00110324      -0.00278081
Ti      10.86091725       0.76389665      11.31850231        0       0.00351089      -0.00143099       0.00340333
O        9.34225051       1.64100351      12.23159545        3       0.00162306      -0.00170620      -0.13398255
O       10.85761038       0.76577121       7.76289680        1       0.00209632      -0.00160883       0.00222721
C        7.82907342       2.51449004       9.97477611        2       0.00183108      -0.00127929      -0.00096093
Ti       7.82921011       4.26494854       8.67837385        0      -0.00085637      -0.00321377      -0.00049705
Ti       9.34268166       3.39510871      11.31825526        0       0.00295893      -0.00150718       0.00350628
O        7.82740208       4.24739144      12.23159545        3       0.00217906       0.00094932      -0.11157280
O        9.34293934       3.39021411       7.76226427        1      -0.00051940      -0.00108160       0.00320152
C        6.30787862       5.12699571       9.98051295        2      -0.00208149       0.00053244       0.00345666
Ti       6.32303924       6.89406384       8.69815179        0      -0.00216104      -0.00276837       0.00034757
Ti       7.80189126       6.00809151      11.27039165        0      -0.00036563      -0.00425196       0.00006064
O        6.30256636       6.88231439      12.23159545        3      -0.00086303      -0.00083582      -0.04372946
O        7.83457712       6.02258713       7.77167297        1      -0.00218954      -0.00424460       0.00142405
C        4.78476746       7.76392222       9.98100795        2       0.00031774      -0.00010453       0.00125298
Ti       4.79894538       9.51414375       8.67923958        0      -0.00515017      -0.00183782      -0.00300249
Ti       6.29383033       8.61810739      11.27067178        0      -0.00293158      -0.00007551      -0.00018134
O        4.78244467       9.52116972      12.23159545        3       0.00093155       0.00076576      -0.11056520
O        6.32306147       8.63892661       7.77241737        1      -0.00076701       0.00140582      -0.00207042
C       -0.35093322       0.23833121      15.96974682       10      -0.00486921      -0.00011802       0.01966348
C        0.85535450       0.93971983      15.95445477       10       0.00191597      -0.00112322      -0.01378034
C       -1.56698659       2.33852122      15.97506752       10       0.00097542       0.00172921      -0.01503667
C       -0.35517738       3.03810165      15.95735709       10       0.00223168       0.00242152       0.01603399
C       -2.77778003       4.44170935      15.96974682       10      -0.00097361      -0.00054616       0.01970521
C       -1.56716522       5.13574774      15.95445477       10      -0.00145292       0.00139449      -0.01400524
C       -3.98470960       6.54230646      15.90663607       10       0.00014397       0.00172233       0.11544405
C       -2.77769960       7.22477697      15.86481385       10       0.00068973      -0.00281298      -0.33451277
C       -5.19513763       8.63899938      15.90663607       10      -0.00460811       0.00056841       0.11623118
C       -4.00086298       9.34316211      15.86481385       10       0.00300078       0.00126008      -0.33264620
C        2.07169255       0.23345218      15.90663607       10       0.00031380      -0.00292231       0.11608408
C        3.28229428       0.94153463      15.87455739       10      -0.00127613       0.00192228      -0.01671716
C        0.85748564       2.33884599      15.94341180       10       0.00056933      -0.00194907       0.03856380
C        2.06909914       3.03763697      15.92149739       10      -0.00039119       0.00003817       0.05158767
C       -0.35444573       4.43794064      15.94341180       10      -0.00181471       0.00343010       0.03863664
C        0.85651619       5.13787231      15.92149739       10      -0.00041600       0.00030000       0.05142101
C       -1.57070626       6.54229740      15.90663607       10      -0.00166991       0.00076091       0.11553266
C       -0.35216555       7.23658868      15.87455739       10       0.00112097      -0.00098917      -0.01694675
C       -2.77757471       8.63710986      15.41200819       10      -0.00354825       0.00053326       0.58476904
C       -1.55453255       9.34320036      15.86481385       10       0.00154183       0.00080907      -0.33093931
C        4.49290165       0.23346822      15.90663607       10      -0.00054592      -0.00220929       0.11614357
C        5.70917733       0.93981219      15.95445477       10      -0.00086145      -0.00219668      -0.01390405
C        3.28220249       2.33557790      15.90689110       10       0.00069599       0.00262835      -0.00708169
C        4.49527046       3.03766598      15.92149739       10       0.00122954       0.00062690       0.05159718
C        2.07009559       4.43840364      15.91881578       10      -0.00087275      -0.00075594       0.01423771
C        3.28214347       5.13824523      15.91381501       10       0.00082459      -0.00114698       0.02532651
C        0.85508821       6.53950839      15.90689110       10       0.00152754      -0.00093396      -0.00734642
C        2.06964291       7.23903569      15.92149739       10      -0.00006537       0.00084914       0.05146042
C       -0.36011273       8.63906310      15.90663607       10      -0.00104142      -0.00013875       0.11599882
C        0.85977402       9.33914542      15.95445477       10      -0.00181402       0.00226617      -0.01396451
C        6.91554356       0.23839642      15.96974682       10       0.00146344       0.00066809       0.01957334
C        8.13180878       0.94063205      15.97668534       10       0.00100208       0.00089248       0.00774441
C        5.70695903       2.33893117      15.94341180       10      -0.00120306      -0.00201922       0.03852515
C        6.91957220       3.03825332      15.95735709       10      -0.00165657       0.00124177       0.01594676
C        4.49421704       4.43843833      15.91881578       10       0.00203477      -0.00064301       0.01428363
C        5.70780924       5.13795897      15.92149739       10       0.00176786      -0.00083668       0.05140412
C        3.28218923       6.53782798      15.91881578       10       0.00071086       0.00019903       0.01419408
C        4.49479240       7.23900877      15.92149739       10       0.00082154       0.00121194       0.05140206
C        2.07036788       8.63772415      15.94341180       10      -0.00245188       0.00089359       0.03862626
C        3.28233140       9.33821670      15.95735709       10      -0.00099112      -0.00018899       0.01583283
C        9.34231917       0.24134188      15.97506752       10      -0.00271951      -0.00385240      -0.01516513
C       10.55265127       0.94060704      15.97668534       10       0.00332172      -0.00020446       0.00779839
C        8.13138944       2.33861688      15.97506752       10      -0.00154978      -0.00029909      -0.01512886
C        9.34217637       3.03728805      15.97668534       10       0.00154593      -0.00259446       0.00784182
C        6.91882933       4.43810360      15.94341180       10       0.00152331       0.00121678       0.03855831
C        8.13157883       5.13581622      15.95445477       10       0.00347476       0.00011357      -0.01404095
C        5.70936531       6.53955463      15.90689110       10      -0.00125732      -0.00130926      -0.00720561
C        6.91672132       7.23656649      15.87455739       10      -0.00106884      -0.00109462      -0.01703982
C        4.49427142       8.63767992      15.94341180       10       0.00016089       0.00082533       0.03860029
C        5.70480579       9.33904878      15.95445477       10       0.00481083       0.00396943      -0.01389898
O       -2.77739641       8.63816651      13.92469648       11      -0.00267665      -0.00239440       0.00742173
