131
Lattice="12.12 0.0 0.0 -6.06 10.496227893867395 0.0 0.0 0.0 40.0" Properties=species:S:1:pos:R:3:tags:I:1:forces:R:3 energy=-1204.0626831200473 stress="0.002842669443606571 -5.576917998807653e-07 -4.389366112069369e-06 -5.576917998807653e-07 0.0028423568980936757 2.4382650330201028e-06 -4.389366112069369e-06 2.4382650330201028e-06 0.0020011751004852286" pbc="T T F"
C       -0.00055733       0.00027405      10.00298374        2      -0.00035567       0.00016251       0.00001231
Ti       0.00047839       1.74938948       8.69038056        0      -0.00063040       0.00025756       0.00044301
Ti       1.51482576       0.87554686      11.31233663        0       0.00003668      -0.00054959       0.00186718
O       -0.00077464       1.74947593      12.23159545        3      -0.00070953       0.00050797       0.17437987
O        1.51587649       0.87314319       7.77304503        1      -0.00038201       0.00012620       0.00077118
C       -1.51520328       2.62430529      10.00237238        2      -0.00037993       0.00032641      -0.00017822
Ti      -1.51516069       4.37420391       8.69323450        0      -0.00038959       0.00011947       0.00063019
Ti      -0.00015942       3.49897426      11.31283131        0      -0.00023382       0.00057002       0.00004789
O       -1.51488588       4.37308495      12.23159545        3      -0.00048882      -0.00055211       0.12030718
O       -0.00070466       3.49934783       7.77141887        1      -0.00058257       0.00026750       0.00024252
C       -3.03072439       5.24787752      10.00507906        2      -0.00070618       0.00016159       0.00035874
Ti      -3.03037000       6.99705782       8.69896086        0      -0.00068671       0.00037074       0.00097977
Ti      -1.51660560       6.12547760      11.32327269        0      -0.00148067       0.00151396       0.00259354
O       -3.03299051       6.99593828      12.23159545        3      -0.00053781       0.00007585       0.03893221
O       -1.51564119       6.12508146       7.77735621        1      -0.00059668       0.00051130       0.00150286
C       -4.54602213       7.87207456      10.00785576        2      -0.00081932       0.00009801      -0.00031559
Ti      -4.54500759       9.62162294       8.69684699        0      -0.00061517       0.00027507       0.00072615
Ti      -3.03047856       8.74696877      11.33665951        0       0.00004260       0.00006462       0.00173085
O       -4.54492061       9.62141415      12.23159545        3      -0.00057419       0.00036716       0.14191131
O       -3.02898648       8.74638136       7.78041695        1      -0.00048242       0.00025273       0.00097677
C        3.02959359       0.00069227      10.00815009        2      -0.00051246       0.00065642      -0.00034378
Ti       3.02978078       1.74856197       8.69429030        0      -0.00032637       0.00053599       0.00041545
Ti       4.54301374       0.87789514      11.31665816        0      -0.00082296      -0.00132943       0.00211876
O        3.02839436       1.75303490      12.23159545        3      -0.00053342       0.00068863       0.12655438
O        4.54445221       0.87263287       7.77477361        1      -0.00044784       0.00009395       0.00103938
C        1.51434204       2.62409735      10.00236362        2      -0.00024366       0.00030336       0.00009732
Ti       1.51448205       4.37370554       8.69068765        0      -0.00039261       0.00008048       0.00067013
Ti       3.02948560       3.50007465      11.31346067        0      -0.00046018       0.00023464      -0.00037389
O        1.51435067       4.37344466      12.23159545        3      -0.00031825       0.00033156       0.12696354
O        3.02966203       3.49773285       7.77171889        1      -0.00050768       0.00038763      -0.00019646
C        0.00022041       5.24794250      10.00439224        2      -0.00038226       0.00028991       0.00038772
Ti       0.00020756       6.99740579       8.69820838        0      -0.00026373       0.00013063       0.00090513
Ti       1.51578944       6.12225263      11.31199476        0      -0.00080621       0.00052476       0.00099248
O        0.00005104       6.99771327      12.23159545        3      -0.00064123       0.00037085       0.14013533
O        1.51316694       6.12385375       7.77220489        1      -0.00053536       0.00030217       0.00079357
C       -1.51573742       7.87261481      10.01258122        2      -0.00044340       0.00026052      -0.00047867
Ti      -1.51481759       9.62202182       8.69921562        0      -0.00065513       0.00034274       0.00097456
Ti      -0.00280269       8.74705535      11.32404297        0      -0.00220047       0.00057455       0.00271508
O       -1.51505541       9.62482945      12.23159545        3      -0.00036799       0.00052480       0.03736992
O       -0.00226470       8.74640350       7.77758729        1      -0.00071894       0.00023557       0.00156405
C        6.05985499       0.00066202      10.00560582        2      -0.00048275       0.00053268       0.00029048
Ti       6.05959561       1.74880712       8.69241886        0      -0.00034831       0.00031430       0.00060999
Ti       7.57443472       0.87501079      11.31260451        0      -0.00090066       0.00036807       0.00047409
O        6.06012061       1.75080011      12.23159545        3      -0.00043517       0.00086359       0.12622279
O        7.57407871       0.87404183       7.77207077        1      -0.00045100       0.00003550       0.00029814
C        4.54477727       2.62460578      10.00347786        2      -0.00052893       0.00050809      -0.00007339
Ti       4.54497743       4.37333301       8.68993730        0      -0.00034315       0.00021549       0.00041612
Ti       6.05967988       3.49903430      11.31269423        0      -0.00127104       0.00065934      -0.00013743
O        4.54503689       4.37336895      12.23159545        3      -0.00066623       0.00038888       0.12183161
O        6.06029966       3.49842045       7.77165326        1      -0.00025561       0.00013035      -0.00001798
C        3.02980927       5.24813784      10.00217371        2      -0.00056218       0.00032283      -0.00011862
Ti       3.02946370       6.99784838       8.69079441        0      -0.00027163       0.00024089       0.00065456
Ti       4.54340134       6.12248606      11.31344346        0      -0.00034077       0.00028365      -0.00050883
O        3.02946504       6.99789304      12.23159545        3      -0.00034706       0.00010069       0.12659799
O        4.54557072       6.12348906       7.77165696        1      -0.00059020       0.00025309      -0.00026617
C        1.51533947       7.87201625      10.00444257        2      -0.00039342       0.00012629       0.00039817
Ti       1.51420006       9.62131953       8.69362410        0      -0.00028690       0.00023923       0.00070786
Ti       3.02982987       8.74679587      11.31278360        0      -0.00068647      -0.00003906       0.00014974
O        1.51562027       9.62155385      12.23159545        3       0.00012348       0.00059240       0.11856097
O        3.02899386       8.74721634       7.77148224        1      -0.00050320       0.00035381       0.00029800
C        9.08980823       0.00012315      10.00241799        2      -0.00052878       0.00014256      -0.00009460
Ti       9.08971803       1.74946223       8.69014774        0      -0.00024614       0.00017181       0.00007597
Ti      10.60493141       0.87470791      11.31410226        0      -0.00017123       0.00001043      -0.00054451
O        9.08990440       1.74955357      12.23159545        3      -0.00037027       0.00020575       0.12549030
O       10.60505790       0.87464628       7.77097179        1      -0.00038894       0.00024047      -0.00031271
C        7.57496734       2.62405209      10.00253692        2      -0.00063818       0.00031027       0.00015858
Ti       7.57526226       4.37407623       8.69180890        0      -0.00045069       0.00005524       0.00064370
Ti       9.08939619       3.49922592      11.31276230        0      -0.00083481       0.00051316       0.00024692
O        7.57410353       4.37283736      12.23159545        3      -0.00096508      -0.00006520       0.12967278
O        9.09010736       3.49970263       7.77184375        1      -0.00028109       0.00034746       0.00019869
C        6.05946559       5.24802825      10.00314082        2      -0.00067128       0.00019766      -0.00001770
Ti       6.06059430       6.99812190       8.69377460        0      -0.00062891      -0.00000786       0.00051012
Ti       7.57091703       6.12254705      11.31473235        0       0.00073307       0.00130280       0.00217529
O        6.05572398       6.99651669      12.23159545        3      -0.00087395       0.00011942       0.11528134
O        7.57647260       6.12431711       7.77409960        1      -0.00032963       0.00025803       0.00107994
C        4.54460064       7.87270268      10.00230782        2      -0.00037454       0.00006890       0.00013759
Ti       4.54515848       9.62112198       8.69030474        0      -0.00053552       0.00044346       0.00049388
Ti       6.05918821       8.74616347      11.31262896        0       0.00046965       0.00036484       0.00160484
O        4.54461412       9.62218910      12.23159545        3      -0.00079870       0.00032039       0.15780522
O        6.06176157       8.74702067       7.77288779        1      -0.00039531       0.00021880       0.00074886
C        0.04162747       0.06975334      17.81711524       10      -0.00137707      -0.00063861      -0.02990834
C        1.25017410       0.77016845      17.80182319       10       0.00507202      -0.00106479      -0.03839640
C       -1.16838738       2.16736525      17.82243594       10      -0.00049932      -0.00091111      -0.03304296
C        0.04312722       2.86672968      17.80472551       10      -0.00006122      -0.00126243      -0.02894062
C       -2.38005620       4.26430192      17.81711524       10      -0.00030538      -0.00223759      -0.01342401
C       -1.16895283       4.96063481      17.80182319       10      -0.00016193      -0.00035394      -0.01471113
C       -3.58566410       6.36679014      17.75400449       10       0.00073945      -0.00154177       0.01714867
C       -2.38009745       7.04782674      17.71218227       10       0.00035983       0.00255069      -0.07046381
C       -4.80000208       8.47083398      17.75400449       10      -0.00183369      -0.00100417      -0.00497233
C       -3.60684623       9.17375777      17.71218227       10       0.00631248      -0.00167692      -0.09417682
C        2.46515181       0.06240534      17.75400449       10       0.00282435      -0.00381488      -0.01467619
C        3.67973623       0.76729671      17.72192581       10       0.00049030      -0.00054969      -0.08526312
C        1.25526228       2.16799795      17.79078022       10       0.00044872      -0.00126374      -0.04162137
C        2.46670300       2.86596239      17.76886581       10      -0.00015755       0.00112019      -0.04910901
C        0.04418067       4.26606828      17.79078022       10       0.00013902      -0.00058984      -0.04828836
C        1.25429062       4.96623477      17.76886581       10       0.00088132      -0.00025792      -0.02286883
C       -1.17423737       6.36654007      17.75400449       10      -0.00139353      -0.00011397      -0.00396845
C        0.04322165       7.06633598      17.72192581       10       0.00042523      -0.00114997      -0.06243346
C       -2.37911825       8.46469624      17.25937661       10       0.00127103       0.00036556      -0.30016560
C       -1.15266429       9.17420504      17.71218227       10      -0.00018859      -0.00143075      -0.07226022
C        4.89450624       0.06261610      17.75400449       10       0.00140723      -0.00084743       0.00990584
C        6.10931791       0.77047927      17.80182319       10       0.00129575       0.00004164      -0.01663759
C        3.67971752       2.16349174      17.75425952       10       0.00028190       0.00058571      -0.02449959
C        4.89289721       2.86615263      17.76886581       10       0.00064077       0.00100494      -0.05381710
C        2.46789470       4.26683293      17.76618420       10       0.00046391       0.00078364      -0.03290128
C        3.68002212       4.96664447      17.76118343       10      -0.00057467      -0.00002320      -0.03858029
C        1.25243850       6.36816679      17.75425952       10       0.00120959      -0.00058158      -0.05279891
C        2.46743787       7.06747721      17.76886581       10       0.00060830       0.00033041      -0.02212764
C        0.04035970       8.47061473      17.75400449       10       0.00120189      -0.00079594      -0.01228412
C        1.26056508       9.16888247      17.80182319       10       0.00102639       0.00077159      -0.01354934
C        7.31807926       0.06967219      17.81711524       10       0.00318610       0.00148923      -0.01466857
C        8.53014712       0.76957730      17.82405376       10       0.00295424       0.00155263      -0.03011833
C        6.10425115       2.16824214      17.79078022       10       0.00154721       0.00011907      -0.01919299
C        7.31645913       2.86710592      17.80472551       10       0.00210625      -0.00026366      -0.03927482
C        4.89188384       4.26694878      17.76618420       10      -0.00103363       0.00078761      -0.02387821
C        6.10558274       4.96643831      17.76886581       10      -0.00088206      -0.00015496      -0.05591175
C        3.67998180       6.36625863      17.76618420       10      -0.00057991      -0.00102249      -0.02894010
C        4.89261145       7.06768415      17.76886581       10      -0.00043367      -0.00126460      -0.04353312
C        2.46865455       8.46555921      17.79078022       10       0.00171258       0.00074033      -0.04699158
C        3.68007103       9.16613295      17.80472551       10       0.00100311       0.00095723      -0.02575990
C        9.73995875       0.06882951      17.82243594       10      -0.00036779      -0.00113218      -0.03683747
C       10.94955893       0.76948752      17.82405376       10       0.00434080       0.00010385      -0.03540308
C        8.52815924       2.16746355      17.82243594       10       0.00183855      -0.00073024      -0.02378584
C        9.73979448       2.86470317      17.82405376       10       0.00148607      -0.00220254      -0.03628673
C        7.31567403       4.26630515      17.79078022       10      -0.00139116      -0.00131962      -0.01887976
C        8.52867773       4.96083204      17.80182319       10       0.00086645      -0.00334822      -0.01931254
C        6.10748734       6.36841037      17.75425952       10      -0.00008053      -0.00033979      -0.02326588
C        7.31669622       7.06650710      17.72192581       10       0.00153176      -0.00133936      -0.08865660
C        4.89136490       8.46583926      17.79078022       10      -0.00111522      -0.00186723      -0.03809187
C        6.09944132       9.16901924      17.80182319       10       0.00378212       0.00095347      -0.03831244
O       -2.37174559       8.46027823      15.92738269       11      -0.00104393       0.00066212      -0.00603239
