131
Lattice="12.12 0.0 0.0 -6.06 10.496227893867395 0.0 0.0 0.0 40.0" Properties=species:S:1:pos:R:3:tags:I:1:forces:R:3 energy=-1205.341693689388 stress="0.0028515648068721698 -1.7276053168837889e-06 2.7793448875614923e-06 -1.7276053168837889e-06 0.0028501438056173336 -1.0945630939905507e-06 2.7793448875614923e-06 -1.0945630939905507e-06 0.0022924558113391123" pbc="T T F"
C       -0.00159402       0.00108617      10.00162859        2      -0.00001931       0.00010606       0.00005070
Ti       0.00097112       1.74891952       8.69067473        0       0.00009947      -0.00011495       0.00124828
Ti       1.51657741       0.87696956      11.31022514        0       0.00098059      -0.00131581       0.00126099
O       -0.00029600       1.74951965      12.23159545        3      -0.00037627       0.00034705       0.01314319
O        1.51757037       0.87135301       7.77447100        1       0.00067855      -0.00045814       0.00020431
C       -1.51434525       2.62251259      10.00042238        2       0.00045801      -0.00058466      -0.00051417
Ti      -1.51483307       4.37540114       8.69449314        0       0.00038366      -0.00054297       0.00147651
Ti      -0.00058626       3.49782936      11.30687273        0       0.00168474       0.00012365      -0.00199512
O       -1.51459208       4.37198085      12.23159545        3       0.00068434      -0.00216331      -0.01386256
O       -0.00101764       3.49908533       7.76851962        1       0.00015816      -0.00006327      -0.00100234
C       -3.02975745       5.24587368      10.00410424        2       0.00031573      -0.00083017       0.00054982
Ti      -3.03136454       6.99573320       8.70703002        0       0.00061189      -0.00024031       0.00258287
Ti      -1.51140769       6.12510901      11.31934871        0      -0.00087619       0.00138347       0.00250625
O       -3.03549915       6.98392348      12.23159545        3       0.00034882      -0.00160421      -0.12110206
O       -1.51642595       6.12750641       7.77793114        1       0.00004175      -0.00000052       0.00116354
C       -4.54571808       7.87197618      10.01402976        2       0.00003424      -0.00004745       0.00126544
Ti      -4.54554095       9.62149724       8.70321057        0       0.00009877       0.00027460       0.00222099
Ti      -3.02051644       8.74395428      11.37169123        0       0.00230709      -0.00075511       0.00125029
O       -4.55372426       9.62651857      12.23159545        3      -0.00216606       0.00121580      -0.02824090
O       -3.02842622       8.74591252       7.78819034        1       0.00029025      -0.00014862       0.00222499
C        3.02982029       0.00100860      10.01449775        2       0.00008169       0.00015315       0.00086007
Ti       3.02988244       1.74900704       8.69901288        0       0.00063076      -0.00013915       0.00195702
Ti       4.54391717       0.88062439      11.30898787        0       0.00070638      -0.00377139       0.00392584
O        3.02880358       1.75354532      12.23159545        3       0.00054048       0.00014542       0.00711399
O        4.54362639       0.87108754       7.77596234        1       0.00037508      -0.00100777       0.00090309
C        1.51324319       2.62536874      10.00095390        2       0.00061152       0.00005337       0.00058495
Ti       1.51391249       4.37315003       8.69201686        0       0.00055500       0.00016339       0.00153996
Ti       3.02896911       3.49872802      11.30873705        0       0.00069911      -0.00017228      -0.00242051
O        1.51537684       4.37040456      12.23159545        3       0.00137351      -0.00028592      -0.02557295
O        3.03000317       3.49628513       7.76990552        1       0.00009302      -0.00071934      -0.00110606
C        0.00236382       5.24558037      10.00114776        2       0.00095683      -0.00067622       0.00056503
Ti       0.00148447       6.99663743       8.70009620        0      -0.00015300       0.00025625       0.00237894
Ti       1.51986933       6.11983568      11.30688105        0      -0.00072190       0.00033852      -0.00079609
O        0.01076667       6.99090411      12.23159545        3       0.00128883      -0.00058959      -0.02505511
O        1.51195350       6.12466756       7.77025355        1      -0.00050847       0.00036188      -0.00004600
C       -1.51424166       7.87206512      10.02571057        2       0.00057828      -0.00030839       0.00033085
Ti      -1.51398407       9.62361352       8.70690142        0       0.00051380      -0.00017569       0.00227438
Ti      -0.00043750       8.74312244      11.32162386        0      -0.00206630       0.00067011       0.00209372
O       -1.50420389       9.63472273      12.23159545        3       0.00165156       0.00052771      -0.15118012
O       -0.00465716       8.74575126       7.77801799        1       0.00008516       0.00010000       0.00094006
C        6.06215431       0.00077283      10.00364684        2       0.00103732       0.00019675       0.00035550
Ti       6.05977309       1.74849887       8.69462802        0       0.00010883       0.00018952       0.00153849
Ti       7.57609500       0.87399720      11.30427664        0       0.00009181      -0.00022623      -0.00179348
O        6.06120191       1.74893155      12.23159545        3       0.00111517       0.00081779      -0.02821202
O        7.57392765       0.87368997       7.76947174        1       0.00011038      -0.00000872      -0.00118788
C        4.54543991       2.62722658      10.00177654        2       0.00033154       0.00042044      -0.00054887
Ti       4.54505080       4.37359125       8.69128539        0       0.00013206      -0.00033892       0.00235020
Ti       6.06039330       3.49776207      11.31403720        0      -0.00084850       0.00074824      -0.00339535
O        4.54372236       4.37352265      12.23159545        3      -0.00016176       0.00009751      -0.03298834
O        6.06096760       3.49832174       7.77037621        1       0.00062909      -0.00024123      -0.00131948
C        3.02988521       5.24813916      10.00175477        2       0.00007178      -0.00002971      -0.00030734
Ti       3.02973697       6.99862324       8.69234325        0       0.00004116      -0.00053897       0.00173679
Ti       4.54428350       6.12330256      11.30945885        0       0.00047287      -0.00041114      -0.00233259
O        3.03298368       6.99866112      12.23159545        3       0.00080449      -0.00079289      -0.02698217
O        4.54731753       6.12432192       7.77032425        1       0.00076599       0.00027400      -0.00103801
C        1.51831743       7.87155067      10.00133565        2       0.00125569      -0.00032086       0.00037511
Ti       1.51363902       9.62040155       8.69440987        0       0.00056185       0.00004716       0.00130943
Ti       3.03051996       8.74787461      11.30697617        0       0.00080804      -0.00144906      -0.00206855
O        1.51642728       9.62211244      12.23159545        3       0.00238289       0.00056340      -0.01585198
O        3.02939213       8.74747316       7.76853017        1       0.00023181      -0.00002533      -0.00092529
C        9.09158499       0.00027501      10.00022931        2       0.00078721      -0.00011265      -0.00030339
Ti       9.08993244       1.74937656       8.68976568        0       0.00061377      -0.00022625       0.00143233
Ti      10.60554936       0.87441581      11.30618097        0       0.00074490      -0.00020779      -0.00372037
O        9.09123835       1.74811896      12.23159545        3       0.00091964      -0.00052365      -0.02404987
O       10.60549642       0.87440802       7.76772397        1       0.00038954      -0.00024035      -0.00185724
C        7.57646297       2.62315062      10.00142538        2       0.00040203      -0.00018264       0.00010673
Ti       7.57562582       4.37397334       8.69524239        0      -0.00005218      -0.00015331       0.00166480
Ti       9.09172911       3.49793258      11.30541769        0       0.00017863       0.00024223      -0.00187616
O        7.57565163       4.37104682      12.23159545        3      -0.00021500      -0.00139901      -0.02886569
O        9.09023514       3.50025884       7.76975407        1       0.00010105       0.00005859      -0.00113689
C        6.05775369       5.24606437      10.00295538        2      -0.00013812      -0.00026841      -0.00023206
Ti       6.06054836       6.99798700       8.70021490        0       0.00032823      -0.00038353       0.00189038
Ti       7.56942004       6.12103703      11.31167352        0       0.00330304       0.00105144       0.00340260
O        6.05582228       6.99741897      12.23159545        3       0.00009256      -0.00036770       0.00772415
O        7.57744840       6.12569899       7.77664316        1       0.00098765       0.00039348       0.00109401
C        4.54301015       7.87301937      10.00136117        2       0.00026320      -0.00046496       0.00065919
Ti       4.54592937       9.62096709       8.69076316        0       0.00027472       0.00005937       0.00128598
Ti       6.05874809       8.74519051      11.30923821        0       0.00183062       0.00003266       0.00181935
O        4.54494519       9.62182961      12.23159545        3      -0.00035496       0.00015065      -0.00502361
O        6.06402743       8.74612658       7.77435534        1       0.00091377      -0.00026555       0.00041133
C        0.04040936       0.07019285      16.68027314       10      -0.00318213      -0.00033615       0.03423154
C        1.24846260       0.77062987      16.66498109       10       0.00359175       0.00017655       0.01138731
C       -1.16935561       2.16764576      16.68559384       10      -0.00170012       0.00061871       0.02479686
C        0.04216814       2.86732031      16.66788341       10      -0.00108315      -0.00071464       0.01527369
C       -2.38012156       4.26488216      16.68027314       10      -0.00192974      -0.00145231       0.02105719
C       -1.17051436       4.96071026      16.66498109       10      -0.00112482       0.00058280       0.01930467
C       -3.58706661       6.36850141      16.61716239       10      -0.00080890      -0.00013385       0.07024485
C       -2.38183501       7.04939259      16.57534017       10      -0.00061790       0.00262308      -0.18894598
C       -4.80183316       8.47082520      16.61716239       10      -0.00391373      -0.00050130       0.06040411
C       -3.60926316       9.17482418      16.57534017       10       0.00422451       0.00055555      -0.18042168
C        2.46411485       0.06359537      16.61716239       10       0.00124712      -0.00283004       0.06234843
C        3.67836164       0.76868697      16.58508371       10      -0.00101765       0.00046729      -0.02149221
C        1.25404955       2.16837083      16.65393812       10      -0.00081636      -0.00095364       0.01998459
C        2.46573065       2.86619430      16.63202371       10      -0.00167327       0.00113864       0.00942341
C        0.04303026       4.26642992      16.65393812       10      -0.00134218      -0.00009435       0.02228101
C        1.25363334       4.96618822      16.63202371       10      -0.00096547       0.00027137       0.00402402
C       -1.17502066       6.36797690      16.61716239       10      -0.00239471       0.00102193       0.05621731
C        0.04263017       7.06644161      16.58508371       10      -0.00120301      -0.00076642      -0.02161865
C       -2.38290456       8.46665444      16.12253451       10      -0.00020806       0.00073409       0.11108991
C       -1.15494016       9.17462965      16.57534017       10      -0.00131446      -0.00023581      -0.18260695
C        4.89208045       0.06280346      16.61716239       10      -0.00064307      -0.00026301       0.06902362
C        6.10891194       0.77051343      16.66498109       10      -0.00038416       0.00073526       0.02967524
C        3.67834372       2.16410768      16.61741742       10      -0.00141345       0.00096732      -0.01143151
C        4.89204041       2.86609797      16.63202371       10      -0.00049380       0.00114141       0.01757438
C        2.46649227       4.26709521      16.62934210       10      -0.00120685       0.00101935       0.00371311
C        3.67949368       4.96668591      16.62434133       10      -0.00166484       0.00085180       0.00276116
C        1.25153953       6.36841858      16.61741742       10      -0.00058148       0.00053523      -0.00179762
C        2.46699071       7.06776789      16.63202371       10      -0.00058193       0.00113459       0.00845641
C        0.03852867       8.47053387      16.61716239       10      -0.00073590      -0.00059305       0.05687087
C        1.25958510       9.17001717      16.66498109       10      -0.00040063       0.00155348       0.02545333
C        7.31736834       0.06938347      16.68027314       10       0.00151038       0.00195094       0.02052653
C        8.52976070       0.77011493      16.68721166       10       0.00129736       0.00242398       0.02278222
C        6.10362436       2.16743411      16.65393812       10       0.00029139       0.00070231       0.02754377
C        7.31627883       2.86712738      16.66788341       10       0.00044412       0.00001196       0.02545542
C        4.89069144       4.26725582      16.62934210       10      -0.00187280       0.00156833       0.01799910
C        6.10505174       4.96674760      16.63202371       10      -0.00208064       0.00087948       0.01885611
C        3.67865883       6.36701509      16.62934210       10      -0.00170216       0.00012119       0.00265142
C        4.89181448       7.06819361      16.63202371       10      -0.00165989      -0.00026539       0.00994196
C        2.46757167       8.46632454      16.65393812       10       0.00010598       0.00115707       0.01706124
C        3.67899992       9.16651100      16.66788341       10      -0.00015948       0.00144674       0.01035294
C        9.73912311       0.06932463      16.68559384       10      -0.00217042      -0.00117653       0.02226726
C       10.94817185       0.77009244      16.68721166       10       0.00358295       0.00085275       0.01630240
C        8.52834653       2.16726422      16.68559384       10       0.00006465       0.00035852       0.01015212
C        9.73919860       2.86470120      16.68721166       10       0.00013292      -0.00163527       0.02871826
C        7.31585860       4.26679902      16.65393812       10      -0.00287368      -0.00045925       0.03170238
C        8.52852681       4.96093809      16.66498109       10      -0.00018354      -0.00203645       0.03572936
C        6.10594933       6.36899555      16.61741742       10      -0.00186136       0.00040714      -0.00664988
C        7.31450348       7.06668914      16.58508371       10      -0.00031962      -0.00130573      -0.01448942
C        4.89019519       8.46654065      16.65393812       10      -0.00209896      -0.00139151       0.01838106
C        6.09786734       9.16995496      16.66498109       10       0.00303080       0.00201063       0.01081075
O       -2.37963322       8.46673599      14.80022804       11      -0.00348203       0.00145565      -0.00023925
