132
Lattice="12.12 0.0 0.0 -6.06 10.496227893867395 0.0 0.0 0.0 40.0" Properties=species:S:1:pos:R:3:tags:I:1:forces:R:3 energy=-1209.2133711093995 stress="0.0027982966234441522 1.0251229585090244e-06 1.069590740342258e-06 1.0251229585090244e-06 0.0027991685272558443 -3.6028356200482644e-06 1.069590740342258e-06 -3.6028356200482644e-06 0.0020844122427016642" pbc="T T F"
C        0.00201326      -0.00321840      10.00452519        2       0.00085877      -0.00045234       0.00034439
Ti      -0.00133633       1.74726205      11.32099558        0       0.00086927      -0.00068024      -0.00107578
Ti       1.51669992       0.87226323       8.69447883        0       0.00046515      -0.00078047      -0.00325458
O        0.00060793       1.74734963       7.77590823        1       0.00118612      -0.00081102       0.00086239
O        1.51718249       0.87300059      12.23159545        3       0.00055247      -0.00081179       0.13164583
C       -1.51323673       2.62107251      10.00907401        2       0.00104790      -0.00075151       0.00074020
Ti      -1.51393067       4.36691215      11.31292486        0       0.00197866       0.00082841      -0.00145975
Ti       0.00350954       3.49726307       8.69429925        0       0.00021500      -0.00059279      -0.00192956
O       -1.51256442       4.36926248       7.77362093        1       0.00123859       0.00075933       0.00235712
O        0.00318746       3.49765311      12.23159545        3       0.00045537      -0.00040519       0.10963276
C       -3.02798596       5.24459799      10.00249882        2       0.00059273      -0.00023721       0.00172030
Ti      -3.02852113       6.99187538      11.31216579        0       0.00016387       0.00040173      -0.00014059
Ti      -1.51185479       6.11983523       8.69266501        0      -0.00042288      -0.00042168      -0.00270011
O       -3.02732157       6.99393128       7.77199642        1       0.00050131       0.00015671       0.00074486
O       -1.51404108       6.11475030      12.23159545        3       0.00060717       0.00010198       0.15552329
C       -4.54253410       7.86829850      10.00283086        2      -0.00010665      -0.00005209      -0.00035039
Ti      -4.54315668       9.61844613      11.31189008        0      -0.00075401      -0.00119528      -0.00031379
Ti      -3.02806504       8.74367355       8.69235031        0       0.00007951      -0.00036550      -0.00128827
O       -4.54278431       9.61948994       7.77253550        1       0.00049220      -0.00033869       0.00069805
O       -3.02822095       8.74187578      12.23159545        3       0.00027262       0.00015061       0.14065304
C        3.03205988      -0.00296012      10.00449928        2       0.00026633      -0.00031958       0.00105432
Ti       3.03249730       1.74668252      11.31179249        0       0.00016049       0.00064777      -0.00022088
Ti       4.54749581       0.87217308       8.69218592        0       0.00015940      -0.00033787      -0.00118639
O        3.03150946       1.74607374       7.77239367        1       0.00031497      -0.00078896       0.00052217
O        4.54891778       0.87327682      12.23159545        3      -0.00074577      -0.00113580       0.14214050
C        1.51711478       2.62140610      10.00422812        2       0.00069855      -0.00080921       0.00046567
Ti       1.51849413       4.37120907      11.31203932        0       0.00076961      -0.00101835      -0.00013089
Ti       3.03166045       3.49535379       8.69329743        0       0.00049738      -0.00080681      -0.00162009
O        1.51623197       4.37007005       7.77170172        1       0.00153221       0.00040559      -0.00028844
O        3.03381404       3.49650068      12.23159545        3       0.00015122      -0.00129809       0.14011209
C        0.00439093       5.24657983      10.00208188        2      -0.00008269      -0.00011660       0.00108456
Ti       0.00079073       6.99369551      11.31258706        0       0.00049043       0.00086456       0.00024217
Ti       1.51681912       6.12032835       8.69220122        0       0.00148461       0.00043675      -0.00215060
O        0.00168656       6.99471225       7.77109415        1       0.00048032       0.00000803       0.00007200
O        1.51792269       6.11934482      12.23159545        3       0.00045751       0.00027449       0.14139231
C       -1.51290779       7.86852322      10.00369567        2       0.00057387      -0.00002129       0.00038661
Ti      -1.51367293       9.61913203      11.31293520        0       0.00165565      -0.00124411      -0.00090044
Ti       0.00176224       8.74411419       8.69231635        0      -0.00013674      -0.00028695      -0.00116858
O       -1.51333070       9.61891098       7.77176786        1       0.00016395      -0.00069419       0.00238594
O        0.00218142       8.74516423      12.23159545        3      -0.00042702      -0.00067925       0.13275425
C        6.06249674      -0.00238458      10.00291769        2      -0.00015768      -0.00103404       0.00023046
Ti       6.06376035       1.74790553      11.31017827        0      -0.00064689      -0.00129534       0.00012339
Ti       7.57770503       0.87114908       8.69261917        0       0.00003733      -0.00001403      -0.00320596
O        6.06309494       1.74644720       7.77160506        1      -0.00034972      -0.00037210       0.00018552
O        7.58050854       0.87426439      12.23159545        3       0.00045794      -0.00064252       0.15587406
C        4.54825440       2.62148964      10.00254788        2      -0.00037510      -0.00031333      -0.00035076
Ti       4.54905203       4.36982137      11.31268027        0      -0.00078567      -0.00161256       0.00041354
Ti       6.06172082       3.49641004       8.69065403        0       0.00042913      -0.00027578      -0.00225643
O        4.54659641       4.37011757       7.77025157        1      -0.00055474       0.00007069       0.00087665
O        6.06331099       3.49736020      12.23159545        3      -0.00063122      -0.00150458       0.08891143
C        3.03261397       5.24550299      10.00233637        2       0.00027388      -0.00015890       0.00066999
Ti       3.03195116       6.99415417      11.31187404        0      -0.00023899      -0.00028111      -0.00012114
Ti       4.54616337       6.12046547       8.68895165        0      -0.00143522       0.00048395      -0.00175832
O        3.03117337       6.99525317       7.76968362        1       0.00016086      -0.00115542       0.00167269
O        4.54793403       6.11918212      12.23159545        3      -0.00048006      -0.00016259       0.11697451
C        1.51623962       7.86956550      10.00322204        2       0.00103798      -0.00081521       0.00030538
Ti       1.51752117       9.62039445      11.31299607        0      -0.00129434      -0.00131493       0.00012494
Ti       3.03168649       8.74421604       8.69204177        0       0.00029565      -0.00255766      -0.00207920
O        1.51676865       9.61900454       7.77122389        1       0.00003573      -0.00146082       0.00007336
O        3.03173000       8.74293203      12.23159545        3      -0.00015884      -0.00057168       0.12749046
C        9.09207779      -0.00580131      10.00170578        2      -0.00058103      -0.00024572       0.00110220
Ti       9.09430340       1.74695966      11.31257302        0       0.00022771      -0.00233753      -0.00149083
Ti      10.60650604       0.87009936       8.69400521        0       0.00035420      -0.00043975      -0.00240985
O        9.09344281       1.74706387       7.77334909        1      -0.00032937      -0.00165029       0.00260513
O       10.60511721       0.86851784      12.23159545        3       0.00039674      -0.00125325       0.08407707
C        7.57743351       2.62159256      10.00270987        2      -0.00003483      -0.00093370       0.00164284
Ti       7.57570758       4.37080804      11.29893399        0      -0.00160202       0.00111010       0.00005913
Ti       9.09145713       3.49635930       8.69239133        0       0.00008409      -0.00041466      -0.00370849
O        7.57812252       4.37011484       7.77004023        1      -0.00070996       0.00012139      -0.00039738
O        9.08904493       3.49628257      12.23159545        3       0.00084456      -0.00082579       0.14799021
C        6.05978330       5.24645548       9.99995857        2       0.00162011      -0.00105798       0.00106283
Ti       6.06345732       6.99305030      11.31234092        0       0.00056584       0.00100797       0.00008508
Ti       7.57638652       6.12026802       8.69093144        0       0.00078625      -0.00079025      -0.00215364
O        6.06220495       6.99539500       7.77040476        1       0.00007559      -0.00032938       0.00054510
O        7.57606945       6.11783237      12.23159545        3       0.00049944       0.00129289       0.12240429
C        4.54697318       7.86878150      10.00242020        2       0.00009791      -0.00086430       0.00034343
Ti       4.54690520       9.61569132      11.31181450        0       0.00144661      -0.00092632      -0.00041443
Ti       6.06249469       8.74466042       8.69338376        0       0.00085948      -0.00035786      -0.00165874
O        4.54721600       9.61966283       7.77167424        1       0.00044477      -0.00183772       0.00026055
O        6.06202370       8.74103640      12.23159545        3       0.00111182       0.00008758       0.14509925
C        0.06609665       0.05798486      17.56355899       10      -0.00051948       0.00172525      -0.05416636
C        1.27335346       0.76097166      17.57194722       10      -0.00253335      -0.00077384       0.00804647
C       -1.12407705       2.14519590      17.53918832       10      -0.00196073       0.00042882       0.47738524
C        0.06326274       2.85832635      17.54682706       10      -0.00375997       0.00052624      -0.02507671
C       -2.36534850       4.29600704      17.53918277       10       0.00052487      -0.00216844       0.35896812
C       -1.15523556       4.96755987      17.54682450       10      -0.00162567      -0.00046255      -0.02434126
C       -3.57848950       6.37336041      17.56355844       10      -0.00087871       0.00137927      -0.04199758
C       -2.36595710       7.06548102      17.57194702       10       0.00042094       0.00054998      -0.03082757
C       -4.78963327       8.46126138      17.56166605       10       0.00288159       0.00154728      -0.04342046
C       -3.57783094       9.16054181      17.57295571       10       0.00090683      -0.00093372      -0.02347821
C        2.48465566       0.06162686      17.57398073       10       0.00011518       0.00005421      -0.04617247
C        3.69356253       0.76225295      17.57295562       10       0.00092055      -0.00062955      -0.03307836
C        1.27856879       2.15806607      17.56355920       10      -0.00278277       0.00070196      -0.05065573
C        2.48359262       2.86187431      17.55449907       10      -0.00123044       0.00124849      -0.03212263
C        0.06086575       4.26348158      17.52069918       10      -0.00146276       0.00069238      -0.04585554
C        1.26814644       4.96052103      17.53236913       10      -0.00095373       0.00139319      -0.05724567
C       -1.15449113       6.37135523      17.56355844       10       0.00101471       0.00037058       0.01007017
C        0.05843760       7.06275429      17.55449917       10       0.00101477       0.00206810      -0.04980708
C       -2.36609239       8.46384340      17.57398094       10       0.00150834       0.00050202      -0.01300233
C       -1.15484223       9.16042114      17.57295571       10      -0.00000896       0.00003695      -0.05885975
C        4.90298020       0.06126326      17.57398073       10      -0.00032774      -0.00119009      -0.02258302
C        6.11429634       0.76025801      17.57194722       10      -0.00144122       0.00015508      -0.01937637
C        3.69313980       2.16135425      17.56166592       10       0.00009512       0.00043083      -0.03110918
C        4.90248135       2.86218601      17.55449907       10       0.00046044       0.00080915      -0.03920866
C        2.48137926       4.26065955      17.54061557       10       0.00024826       0.00198269      -0.03067641
C        3.69326743       4.96173440      17.53782771       10       0.00117341       0.00037554      -0.04080120
C        1.26828242       6.36168239      17.54061547       10       0.00088469       0.00187863       0.00120639
C        2.48172738       7.06073184      17.53782760       10       0.00113726       0.00112607      -0.05603780
C        0.05675282       8.46086642      17.56166605       10      -0.00133576       0.00203110       0.00541407
C        1.26858843       9.15842606      17.55449892       10      -0.00184444       0.00235685      -0.04903632
C        7.32114007       0.05820884      17.56355899       10      -0.00145393       0.00250824      -0.01971947
C        8.53652997       0.76108538      17.54682687       10      -0.00026717       0.00222921      -0.01423066
C        6.10726703       2.15666174      17.56355920       10       0.00050513       0.00066804      -0.05535670
C        7.32396210       2.85653925      17.54682706       10       0.00100007       0.00160503      -0.01433617
C        4.90478556       4.26035851      17.54061557       10       0.00052861       0.00031980      -0.03881276
C        6.11819659       4.96147963      17.53236913       10      -0.00082301       0.00059784      -0.05530364
C        3.69332779       6.36125867      17.53474971       10       0.00018008      -0.00029928      -0.04756594
C        4.90553480       7.06117635      17.53782760       10      -0.00172113      -0.00013077      -0.04195488
C        2.48035509       8.46086895      17.54061530       10      -0.00095976       0.00225733      -0.01897868
C        3.69368120       9.16191104      17.53236872       10       0.00084789       0.00155346      -0.04249298
C        9.75375461       0.05984728      17.52069913       10       0.00082067       0.00274073      -0.05916149
C       10.97180298       0.76038173      17.54682687       10      -0.00336816       0.00142457      -0.00783031
C        8.51378594       2.14540739      17.53918832       10       0.00166041       0.00207338       0.33393875
C        9.75331210       2.86351289      17.29482906       10      -0.00049613       0.00023232      -1.74756701
C        7.32616538       4.26390646      17.52069918       10       0.00050791       0.00206807      -0.07986075
C        8.54358860       4.96998629      17.54682450       10       0.00067055       0.00062656      -0.00211559
C        6.11877869       6.36266085      17.54061547       10      -0.00283734       0.00006327      -0.02833813
C        7.32818943       7.06380495      17.55449917       10      -0.00343841       0.00142176      -0.02591403
C        4.90643260       8.46093888      17.54061530       10       0.00192294       0.00077013      -0.04360294
C        6.11885947       9.15850127      17.55449892       10      -0.00087395       0.00034135      -0.00227445
O        9.82372180       2.82778125      15.73780968       11       0.00359416       0.00063725       0.00512404
H        9.05529419       3.30126280      15.36389435       12      -0.00717603      -0.00387135      -0.00235407
