132
Lattice="12.12 0.0 0.0 -6.06 10.496227893867395 0.0 0.0 0.0 40.0" Properties=species:S:1:pos:R:3:tags:I:1:forces:R:3 energy=-1208.6075803308345 stress="0.002802937944682428 1.6026376797625799e-06 -1.4046763703561643e-06 1.6026376797625799e-06 0.002804305916394658 8.278267803647263e-08 -1.4046763703561643e-06 8.278267803647263e-08 0.002000430101555469" pbc="T T F"
C        0.00095458      -0.00192268      10.00348116        2       0.00031773      -0.00041640      -0.00067667
Ti      -0.00156126       1.74875412      11.32102785        0       0.00053580      -0.00042997      -0.00071234
Ti       1.51609810       0.87291624       8.69304125        0      -0.00007351      -0.00020818      -0.00235751
O        0.00047134       1.74794669       7.77457135        1       0.00024685      -0.00018915      -0.00075328
O        1.51542518       0.87303877      12.23159545        3       0.00033007      -0.00021197       0.11094840
C       -1.51425894       2.62226723      10.00504512        2       0.00048439      -0.00042159       0.00159031
Ti      -1.51514118       4.36938787      11.31215201        0       0.00013301      -0.00039143       0.00009801
Ti       0.00243983       3.49777445       8.69255717        0      -0.00046465      -0.00026160      -0.00161054
O       -1.51324137       4.37049152       7.77201315        1       0.00058891       0.00060107       0.00158572
O        0.00078139       3.49811995      12.23159545        3       0.00072163      -0.00006992       0.10297115
C       -3.02861421       5.24551484      10.00162604        2      -0.00009590       0.00024314      -0.00009372
Ti      -3.02911266       6.99337088      11.31349788        0      -0.00005301       0.00031207      -0.00056358
Ti      -1.51264037       6.12069912       8.69121741        0      -0.00073698      -0.00059599      -0.00131400
O       -3.02823740       6.99482190       7.77119786        1       0.00024331       0.00043294       0.00007077
O       -1.51391842       6.11734313      12.23159545        3       0.00014917       0.00112392       0.12247822
C       -4.54317137       7.86927470      10.00229256        2      -0.00068527       0.00052262      -0.00015127
Ti      -4.54367289       9.61931407      11.31260395        0      -0.00090847      -0.00069429      -0.00035735
Ti      -3.02854125       8.74436096       8.69080883        0      -0.00012853       0.00023309       0.00034043
O       -4.54348413       9.62008000       7.77199856        1       0.00027536      -0.00029933       0.00014499
O       -3.02854583       8.74346877      12.23159545        3      -0.00019450       0.00030879       0.09827793
C        3.03144962      -0.00201002      10.00341979        2      -0.00018415       0.00014283       0.00102087
Ti       3.03148195       1.74730571      11.31268039        0       0.00002065       0.00077249      -0.00009612
Ti       4.54686392       0.87290972       8.69111075        0      -0.00028887       0.00001471       0.00013730
O        3.03103345       1.74703029       7.77198684        1       0.00022552      -0.00002536       0.00020044
O        4.54750467       0.87302318      12.23159545        3      -0.00065614      -0.00019435       0.11834058
C        1.51593817       2.62242178      10.00378818        2       0.00040962      -0.00038923      -0.00053265
Ti       1.51712535       4.37193129      11.31280914        0       0.00038693      -0.00035804      -0.00009616
Ti       3.03119570       3.49614397       8.69230551        0       0.00020830      -0.00026420      -0.00090927
O        1.51622518       4.37100421       7.77114151        1      -0.00026103       0.00013975      -0.00031786
O        3.03172941       3.49696312      12.23159545        3      -0.00022831      -0.00064883       0.12770999
C        0.00275217       5.24692001      10.00127367        2       0.00044875       0.00038039       0.00027153
Ti       0.00047527       6.99497596      11.31292721        0      -0.00030551       0.00101546       0.00032538
Ti       1.51642132       6.12090578       8.69088145        0       0.00066901       0.00053840      -0.00139137
O        0.00138595       6.99537228       7.77050898        1       0.00041661      -0.00005209       0.00012652
O        1.51590682       6.12102467      12.23159545        3       0.00027495       0.00071030       0.11153005
C       -1.51358811       7.86931354      10.00248486        2       0.00040074       0.00022761       0.00004110
Ti      -1.51376930       9.61949446      11.31348467        0       0.00099235      -0.00056017      -0.00016584
Ti       0.00137406       8.74478386       8.69120775        0      -0.00026894       0.00013232      -0.00068057
O       -1.51371363       9.61962231       7.77127056        1      -0.00001283       0.00002562       0.00165269
O        0.00175068       8.74472983      12.23159545        3      -0.00030436      -0.00009437       0.11401196
C        6.06210467      -0.00166295      10.00241297        2      -0.00018810      -0.00061472      -0.00025186
Ti       6.06272836       1.74830642      11.31278256        0      -0.00025600      -0.00039054      -0.00050558
Ti       7.57693650       0.87199502       8.69125467        0       0.00028665       0.00054191      -0.00132844
O        6.06211848       1.74730698       7.77104005        1      -0.00050189      -0.00038089       0.00003412
O        7.57959550       0.87447744      12.23159545        3      -0.00088195      -0.00047570       0.13558953
C        4.54732152       2.62206722      10.00234052        2      -0.00080652       0.00012196      -0.00011711
Ti       4.54723385       4.37065770      11.31370221        0      -0.00094355      -0.00111932       0.00134665
Ti       6.06123809       3.49691127       8.69012195        0       0.00129358      -0.00033088      -0.00064615
O        4.54601447       4.37104644       7.77030815        1      -0.00007932       0.00032402       0.00095788
O        6.06209185       3.49758986      12.23159545        3      -0.00179652      -0.00052832       0.19187254
C        3.03184952       5.24626493      10.00220882        2      -0.00030483      -0.00023040       0.00010573
Ti       3.03128705       6.99525879      11.31339401        0      -0.00013884      -0.00002373       0.00072084
Ti       4.54607925       6.12093271       8.68886805        0      -0.00135658       0.00075827      -0.00106588
O        3.03116925       6.99558257       7.76971864        1      -0.00047246      -0.00027241       0.00143199
O        4.54709756       6.12022526      12.23159545        3      -0.00048919       0.00020100       0.12905857
C        1.51608708       7.87029969      10.00212681        2       0.00015554      -0.00038996       0.00065754
Ti       1.51671774       9.62050279      11.31309321        0      -0.00135643      -0.00047074      -0.00005091
Ti       3.03131023       8.74482751       8.69066566        0      -0.00013956      -0.00096700      -0.00110675
O        1.51644655       9.61953557       7.77053645        1      -0.00018892      -0.00076262      -0.00011932
O        3.03097780       8.74479494      12.23159545        3      -0.00049349      -0.00063174       0.10348513
C        9.09138984      -0.00405796      10.00105885        2      -0.00037227      -0.00087126       0.00032211
Ti       9.09268555       1.74865605      11.31232721        0       0.00027143       0.00000327       0.00069899
Ti      10.60603964       0.87125949       8.69250658        0      -0.00031872       0.00014288      -0.00158841
O        9.09237947       1.74738398       7.77171748        1      -0.00031428      -0.00070585       0.00208378
O       10.60480351       0.87210948      12.23159545        3       0.00029867      -0.00062586       0.10828506
C        7.57662310       2.62218202      10.00108576        2      -0.00019193      -0.00042334       0.00016788
Ti       7.57463632       4.37225253      11.30240762        0      -0.00104568       0.00064164      -0.00119945
Ti       9.09108498       3.49661344       8.69019275        0      -0.00036704       0.00006449      -0.00172207
O        7.57691263       4.37111371       7.76961207        1      -0.00005133      -0.00000013      -0.00044444
O        9.08951736       3.49702787      12.23159545        3      -0.00025079       0.00020955       0.12707440
C        6.06011270       5.24682674      10.00051390        2       0.00058459      -0.00043832       0.00067918
Ti       6.06217842       6.99531670      11.31325283        0       0.00045168       0.00123906       0.00126441
Ti       7.57600682       6.12089683       8.69018891        0       0.00101217      -0.00115714      -0.00091122
O        6.06152260       6.99592837       7.77030279        1      -0.00031442      -0.00046337       0.00067714
O        7.57569828       6.11958572      12.23159545        3      -0.00058583       0.00161753       0.15436008
C        4.54645439       7.86964918      10.00225113        2      -0.00007133      -0.00012909       0.00006247
Ti       4.54617883       9.61815537      11.31261680        0       0.00061662      -0.00039711      -0.00007979
Ti       6.06184701       8.74533979       8.69230816        0       0.00010604      -0.00002667      -0.00083321
O        4.54666487       9.61985811       7.77103693        1      -0.00031787       0.00002870      -0.00008898
O        6.06133686       8.74452613      12.23159545        3       0.00044520       0.00023563       0.11472955
C        0.06765019       0.05702953      17.84776952       10      -0.00143084       0.00127234      -0.02339228
C        1.27486247       0.76008850      17.85615775       10      -0.00103509      -0.00139340      -0.01938408
C       -1.12244700       2.14403243      17.82339885       10      -0.00303088       0.00016601       0.50310887
C        0.06448490       2.85727188      17.83103759       10      -0.00352498       0.00005796      -0.03578449
C       -2.36439097       4.29360522      17.82339330       10      -0.00070020      -0.00236520       0.36162257
C       -1.15427533       4.96630823      17.83103503       10      -0.00230590      -0.00147505      -0.02516148
C       -3.57745625       6.37168200      17.84776897       10      -0.00180716       0.00079869      -0.02864314
C       -2.36463167       7.06415002      17.85615755       10       0.00025002      -0.00122672      -0.01890633
C       -4.78850617       8.46013176      17.84587658       10       0.00318228       0.00086184      -0.03257223
C       -3.57652462       9.15945230      17.85716624       10       0.00304724      -0.00158395      -0.03314552
C        2.48583407       0.06091601      17.85819126       10       0.00158454      -0.00084474      -0.02069446
C        3.69526228       0.76168633      17.85716615       10       0.00153406      -0.00043532      -0.03429779
C        1.28010194       2.15691183      17.84776973       10      -0.00233746      -0.00002002      -0.02793973
C        2.48541664       2.86126626      17.83870960       10      -0.00112727       0.00105620      -0.03145058
C        0.06192479       4.26212334      17.80490971       10      -0.00219833       0.00022854      -0.03845023
C        1.26937888       4.95980997      17.81657966       10      -0.00096544       0.00114590      -0.04126625
C       -1.15346650       6.37002991      17.84776897       10       0.00069992      -0.00115594      -0.01375863
C        0.05957415       7.06182970      17.83870970       10       0.00080909       0.00103289      -0.02646070
C       -2.36501311       8.46288592      17.85819147       10       0.00211037      -0.00170565      -0.02249479
C       -1.15339451       9.15956853      17.85716624       10      -0.00006768      -0.00118111      -0.03277755
C        4.90431844       0.06097169      17.85819126       10      -0.00017163      -0.00202882      -0.02394370
C        6.11566142       0.76003292      17.85615775       10      -0.00109021      -0.00096922      -0.02409449
C        3.69485824       2.16078317      17.84587645       10       0.00050646       0.00044492      -0.03897573
C        4.90429719       2.86181714      17.83870960       10       0.00192041      -0.00072981      -0.01910650
C        2.48310308       4.25965221      17.82482610       10       0.00074897       0.00168049      -0.02929639
C        3.69496789       4.96082047      17.82203824       10       0.00287687      -0.00091680      -0.05041906
C        1.26959384       6.36078569      17.82482600       10       0.00098955       0.00145163      -0.02727034
C        2.48284143       7.05983955      17.82203813       10       0.00108923       0.00078452      -0.04382255
C        0.05789028       8.46008229      17.84587658       10      -0.00066663       0.00116341      -0.02513207
C        1.26954305       9.15761926      17.83870945       10      -0.00100214       0.00200600      -0.03080319
C        7.32236577       0.05799210      17.84776952       10      -0.00093174       0.00192274      -0.01637358
C        8.53746406       0.76062768      17.83103740       10      -0.00024178       0.00111495      -0.01937058
C        6.10867262       2.15651990      17.84776973       10       0.00168848      -0.00087672      -0.02809387
C        7.32512495       2.85602705      17.83103759       10       0.00178605       0.00034005      -0.00814483
C        4.90656212       4.25945237      17.82482610       10       0.00302292      -0.00130498      -0.02664496
C        6.11964832       4.96018790      17.81657966       10       0.00153532      -0.00065868      -0.04930583
C        3.69510441       6.36017172      17.81896024       10      -0.00010364      -0.00117957      -0.03847858
C        4.90697922       7.05977695      17.82203813       10      -0.00211387      -0.00086506      -0.03569076
C        2.48163156       8.46019524      17.82482583       10       0.00013060       0.00156869      -0.02856702
C        3.69469206       9.16107045      17.81657925       10       0.00215961      -0.00047839      -0.03413026
C        9.75536065       0.05943758      17.80490966       10      -0.00055379       0.00026048      -0.04792243
C       10.97340261       0.75970115      17.83103740       10      -0.00369538       0.00059131      -0.03487216
C        8.51495738       2.14487553      17.82339885       10       0.00157245       0.00105591       0.34671870
C        9.75449059       2.86171668      17.57903959       10      -0.00079625      -0.00033881      -1.77596796
C        7.32722072       4.26287627      17.80490971       10       0.00222752       0.00065649      -0.08440186
C        8.54479840       4.96823388      17.83103503       10       0.00096534       0.00057056      -0.01609812
C        6.12026494       6.36123994      17.82482600       10      -0.00354943      -0.00100185      -0.03486745
C        7.32960405       7.06206484      17.83870970       10      -0.00390929       0.00040636      -0.01746651
C        4.90787850       8.46004514      17.82482583       10       0.00320354      -0.00042846      -0.03410335
C        6.12013181       9.15729442      17.83870945       10       0.00159299       0.00048208      -0.02853904
O        9.82371023       2.82231083      16.02014410       11      -0.00076117       0.00319135       0.00177340
H        9.04642570       3.28012270      15.64709048       12       0.00532915       0.00444814       0.00055967
