130
Lattice="12.12 0.0 0.0 -6.06 10.496227893867395 0.0 0.0 0.0 40.0" Properties=species:S:1:pos:R:3:tags:I:1:forces:R:3 energy=-1198.5140313198958 stress="0.002746832734481259 -1.98761120174488e-07 2.516978544523754e-07 -1.98761120174488e-07 0.002747120613642174 1.456223318641603e-06 2.516978544523754e-07 1.456223318641603e-06 0.003156063031539651" pbc="T T F"
C       -0.00011845      -0.00005996       9.97589447        2       0.00030961       0.00019137      -0.00933331
Ti       0.00059487       1.74528504      11.28025583        0      -0.00011908      -0.00102832      -0.00351048
Ti       1.51537968       0.87498037       8.69868504        0       0.00037902       0.00059098      -0.00062859
O        0.00001525       1.74962266       7.77517802        1      -0.00008231       0.00105250      -0.00448436
O        1.51042895       0.87278772      12.23159545        3      -0.00068177      -0.00014289      -0.15054082
C       -1.51587041       2.62426591       9.97542183        2       0.00039816      -0.00020154      -0.00783020
Ti      -1.51611052       4.36958106      11.28936776        0      -0.00007560      -0.00034350      -0.00173130
Ti      -0.00018458       3.49898745       8.70180266        0       0.00030215       0.00067040       0.00235458
O       -1.51529074       4.37407795       7.77752236        1       0.00017456       0.00152335      -0.00034324
O        0.00033886       3.49209679      12.23159545        3       0.00010733      -0.00116829      -0.17669655
C       -3.03135994       5.24733603       9.97897844        2      -0.00013878       0.00022359      -0.00593109
Ti      -3.03396879       6.99808795      11.28814507        0      -0.00081182       0.00087162      -0.00147128
Ti      -1.51491104       6.12277275       8.70475587        0       0.00040022       0.00018268       0.00466475
O       -3.02953155       6.99687285       7.77740324        1       0.00120961      -0.00005185      -0.00045117
O       -1.51402580       6.12330615      12.23159545        3      -0.00035618      -0.00015031      -0.18252569
C       -4.54546919       7.87144883       9.97534365        2      -0.00020149       0.00051775      -0.00769446
Ti      -4.54876272       9.62479533      11.28146525        0      -0.00075994       0.00083742      -0.00272446
Ti      -3.03002694       8.74660494       8.70174870        0       0.00036782      -0.00000486       0.00218531
O       -4.54491440       9.62154717       7.77533064        1       0.00089405      -0.00057844      -0.00439736
O       -3.03525989       8.75063911      12.23159545        3      -0.00093783       0.00105313      -0.18594995
C        3.03015851       0.00073345       9.97555839        2      -0.00038804       0.00049396      -0.00791510
Ti       3.02602307       1.74764719      11.28650381        0      -0.00110851      -0.00056582      -0.00290194
Ti       4.54533477       0.87518353       8.70220506        0       0.00025446       0.00056129       0.00308753
O        3.03064608       1.74986901       7.77570105        1       0.00040908       0.00016860      -0.00254103
O        4.53956201       0.87347221      12.23159545        3      -0.00083356       0.00083581      -0.16217331
C        1.51572170       2.62412715       9.97557046        2      -0.00021092      -0.00013196      -0.00810265
Ti       1.51597190       4.36854892      11.29103349        0      -0.00036517      -0.00062384      -0.00287718
Ti       3.03059847       3.49893558       8.70232731        0       0.00028175       0.00047360       0.00306486
O        1.51520072       4.37390601       7.77780376        1      -0.00047220       0.00146039      -0.00035959
O        3.02572012       3.49450680      12.23159545        3      -0.00021985      -0.00040516      -0.15789177
C        0.00004370       5.24731917       9.97807476        2       0.00004678       0.00003615      -0.00524461
Ti       0.00079777       6.99863675      11.29084076        0      -0.00023282       0.00078718      -0.00174905
Ti       1.51496650       6.12260967       8.70462229        0       0.00019224       0.00008520       0.00459514
O        0.00007156       6.99750746       7.77918603        1      -0.00004760       0.00042584       0.00152995
O        1.51511345       6.12282107      12.23159545        3       0.00085400      -0.00022735      -0.18919275
C       -1.51581839       7.87267572       9.97802405        2      -0.00001727       0.00035524      -0.00486147
Ti      -1.51885629       9.62529058      11.29014018        0      -0.00100509       0.00062499      -0.00137031
Ti      -0.00010449       8.74695157       8.70434999        0       0.00018761       0.00017440       0.00456271
O       -1.51453068       9.62147591       7.77777002        1       0.00071943      -0.00098027      -0.00053924
O        0.00013878       8.74764757      12.23159545        3       0.00023379       0.00125199      -0.19605176
C        6.05988381       0.00191135       9.97854545        2      -0.00007899       0.00057287      -0.00622533
Ti       6.05965406       1.75208371      11.27980455        0       0.00016194       0.00034636      -0.00420338
Ti       7.57479285       0.87517748       8.70260167        0      -0.00054879       0.00048314       0.00298653
O        6.06015960       1.74979896       7.77477348        1       0.00003593      -0.00037074      -0.00184874
O        7.57931216       0.87327025      12.23159545        3       0.00056832       0.00092059      -0.16384037
C        4.54533194       2.62429717       9.97683500        2      -0.00032234       0.00025296      -0.00774865
Ti       4.54734974       4.37197637      11.27932266        0       0.00033396       0.00020889      -0.00482093
Ti       6.06011406       3.49880705       8.70128636        0      -0.00022888       0.00019717       0.00270029
O        4.54546756       4.37347249       7.77466812        1      -0.00030949       0.00038222      -0.00168301
O        6.05946964       3.49848265      12.23159545        3      -0.00016979       0.00024522      -0.17077955
C        3.03148307       5.24715365       9.97866318        2       0.00018766       0.00000429      -0.00642827
Ti       3.03481795       6.99849661      11.28785541        0       0.00082324       0.00114801      -0.00302983
Ti       4.54518055       6.12241777       8.70264014        0      -0.00023790      -0.00049870       0.00322239
O        3.02963362       6.99709844       7.77761670        1      -0.00104819       0.00004323      -0.00045920
O        4.54545517       6.12739760      12.23159545        3       0.00057824       0.00023667      -0.16180552
C        1.51598717       7.87273217       9.97805797        2       0.00035573       0.00035079      -0.00515127
Ti       1.51860489       9.62534685      11.28804550        0       0.00090702       0.00065443      -0.00184415
Ti       3.03013551       8.74688325       8.70158780        0      -0.00029302      -0.00027764       0.00230025
O        1.51458592       9.62146676       7.77769583        1      -0.00080490      -0.00066387      -0.00060448
O        3.03513934       8.75018611      12.23159545        3       0.00136965       0.00083039      -0.19538425
C        9.08997198       0.00110115       9.97569262        2       0.00065038       0.00028813      -0.00771657
Ti       9.09326451       1.74843293      11.28785629        0       0.00126512      -0.00046335      -0.00177520
Ti      10.60444107       0.87522848       8.69933515        0      -0.00021508       0.00049894      -0.00043195
O        9.08917983       1.75002651       7.77587733        1      -0.00046182       0.00055101      -0.00250133
O       10.61065975       0.87299029      12.23159545        3       0.00093893      -0.00030662      -0.14839880
C        7.57477585       2.62425837       9.97752510        2       0.00014164       0.00023215      -0.00749036
Ti       7.57162862       4.37186588      11.27939965        0      -0.00027683       0.00024829      -0.00378049
Ti       9.08958195       3.49903322       8.70277874        0      -0.00029329       0.00050410       0.00310616
O        7.57469332       4.37337784       7.77470886        1       0.00056589       0.00053561      -0.00176266
O        9.09429219       3.49522569      12.23159545        3      -0.00013446      -0.00051811      -0.15656972
C        6.05999212       5.24814101       9.97802928        2      -0.00011277       0.00031648      -0.00750584
Ti       6.06027738       7.00056396      11.28721706        0       0.00028059       0.00131455      -0.00167590
Ti       7.57503601       6.12241307       8.70270888        0       0.00004998      -0.00028351       0.00324435
O        6.06005070       6.99629108       7.77565414        1       0.00026764      -0.00025449      -0.00220796
O        7.57433787       6.12789596      12.23159545        3      -0.00072972       0.00062979      -0.15923856
C        4.54585997       7.87162904       9.97558202        2       0.00040866       0.00033714      -0.00775705
Ti       4.54997295       9.62489047      11.28281428        0       0.00141560       0.00107112      -0.00245206
Ti       6.06011227       8.74596000       8.69961837        0      -0.00003135      -0.00035505      -0.00016457
O        4.54502543       9.62161373       7.77563415        1      -0.00063282      -0.00037024      -0.00425546
O        6.06068179       8.75347364      12.23159545        3       0.00014503       0.00093371      -0.14766415
C        0.04511946       0.06766758      15.03159545       10      -0.00753118      -0.00448644       0.05881199
C        1.25573685       0.76651327      15.03159545       10       0.00018802      -0.00011316      -0.02542256
C       -1.16632229       2.16631774      15.03159545       10       0.00083925      -0.00247814       0.05463815
C        0.04502615       2.86603865      15.03159545       10       0.00068492      -0.00204617       0.02293166
C       -2.37837154       4.26580116      15.03159545       10      -0.00100920       0.00075795       0.07222711
C       -1.16505225       4.96621374      15.03159545       10      -0.00129858       0.00000056       0.11352568
C       -3.59034526       6.36559039      15.03159545       10      -0.00304864       0.00072947       0.07427960
C       -2.37690571       7.06590389      15.03159545       10      -0.00380089       0.00250908       0.11776377
C       -4.80265533       8.46521812      15.03159545       10      -0.00690807       0.00020162       0.05481741
C       -3.59083860       9.16431085      15.03159545       10       0.00343497       0.00394396       0.03236557
C        2.46821763       0.06681755      15.03159545       10      -0.00416963      -0.00326170       0.05265177
C        3.67955266       0.76519890      15.03159545       10      -0.00467170      -0.00240708       0.02368778
C        1.25587405       2.16612783      15.03159545       10      -0.00089344      -0.00363340       0.05328041
C        2.46653317       2.86555249      15.03159545       10       0.00030530      -0.00153375       0.01801718
C        0.04528948       4.26621273      15.03159545       10      -0.00208570      -0.00087622       0.05956259
C        1.25573134       4.96623894      15.03159545       10      -0.00158173      -0.00027009       0.11712674
C       -1.16589755       6.36537004      15.03159545       10      -0.00530845      -0.00092121       0.04463441
C        0.04542478       7.06476186      15.03159545       10      -0.00410822       0.00190056       0.17098548
C       -2.37812410       8.46415876      15.03159545       10      -0.00246223       0.00054015       0.05636448
C       -1.16672931       9.16250648      15.03159545       10      -0.00192910       0.00111547       0.12574661
C        4.89290436       0.06673164      15.03159545       10      -0.00167192      -0.00022973       0.06166353
C        6.10467004       0.76422560      15.03159545       10      -0.00018801      -0.00273048       0.06393926
C        3.68022515       2.16617490      15.03159545       10       0.00208316      -0.00199354       0.06001435
C        4.89167103       2.86587169      15.03159545       10       0.00279270      -0.00150241       0.01945840
C        2.46840449       4.26579512      15.03159545       10       0.00007913       0.00041883       0.06440556
C        3.67820979       4.96686370      15.03159545       10      -0.00001410      -0.00133084       0.05728517
C        1.25652299       6.36544029      15.03159545       10      -0.00318976       0.00058769       0.04086494
C        2.46738003       7.06572485      15.03159545       10      -0.00263724       0.00108942       0.12766164
C        0.04509102       8.46326834      15.03159545       10      -0.00000741       0.00198891       0.03982682
C        1.25662514       9.16241977      15.03159545       10       0.00128946      -0.00039658       0.13179297
C        7.31680102       0.06676508      15.03159545       10       0.00205202      -0.00166830       0.06489686
C        8.52993413       0.76489562      15.03159545       10       0.00252578      -0.00125911       0.03335158
C        6.10456285       2.16621483      15.03159545       10       0.00379600      -0.00264732       0.07834250
C        7.31733950       2.86584960      15.03159545       10       0.00527925       0.00003413       0.01982245
C        4.89227331       4.26626646      15.03159545       10       0.00147432      -0.00058260       0.07859346
C        6.10475345       4.96657343      15.03159545       10       0.00218571      -0.00003355       0.02042876
C        3.68050610       6.36551641      15.03159545       10      -0.00066864       0.00073789       0.06945232
C        4.89168795       7.06706700      15.03159545       10       0.00061132       0.00291960       0.03275294
C        2.46793294       8.46397602      15.03159545       10       0.00424523       0.00151681       0.05472783
C        3.68039742       9.16410490      15.03159545       10       0.00373187       0.00251018       0.04403992
C        9.74155830       0.06683247      15.03159545       10      -0.00297373      -0.00463142       0.05256259
C       10.95427786       0.76653743      15.03159545       10       0.00686737      -0.00071631      -0.02023743
C        8.52904791       2.16612658      15.03159545       10       0.00379885      -0.00348499       0.06655929
C        9.74286860       2.86553381      15.03159545       10       0.00308844      -0.00153997       0.02134101
C        7.31737371       4.26629152      15.03159545       10       0.00107811      -0.00087941       0.07988274
C        8.53141642       4.96686816      15.03159545       10       0.00092831      -0.00167025       0.05023483
C        6.10488128       6.36592373      15.03159545       10      -0.00075195       0.00149286       0.06974637
C        7.31785653       7.06704946      15.03159545       10      -0.00086824       0.00163032       0.02590691
C        4.89255054       8.46529025      15.03159545       10      -0.00016556      -0.00019589       0.05360693
C        6.10490638       9.16593996      15.03159545       10       0.00740723       0.00407366      -0.01530354
