132
Lattice="12.12 0.0 0.0 -6.06 10.496227893867395 0.0 0.0 0.0 40.0" Properties=species:S:1:pos:R:3:tags:I:1:forces:R:3 energy=-1209.5071959437544 stress="0.002836965328046699 2.3500380336431197e-06 -2.6367867602631826e-06 2.3500380336431197e-06 0.0028392444781811617 -1.6757413860249213e-06 -2.6367867602631826e-06 -1.6757413860249213e-06 0.0021488616650289787" pbc="T T F"
C        0.00127341      -0.00303939      10.00456783        2      -0.00061211      -0.00042981      -0.00428346
Ti      -0.00091627       1.74799873      11.30321133        0      -0.00108975      -0.00050041       0.00427344
Ti       1.51565777       0.87259516       8.71355135        0      -0.00259829       0.00066873       0.00021472
O       -0.00078096       1.74777348       7.77803538        1       0.00161117      -0.00125145      -0.00363168
O        1.51838846       0.87029045      12.23008024        3      -0.00014797      -0.00035559       0.12585339
C       -1.51453732       2.62173256      10.01228549        2      -0.00022197      -0.00017132      -0.00919444
Ti      -1.51236522       4.37024380      11.30316195        0       0.00612472       0.00160287       0.00278700
Ti       0.00149092       3.49663221       8.71726834        0      -0.00211751      -0.00225750      -0.00540694
O       -1.51443414       4.36932326       7.77897976        1      -0.00102924       0.00130715      -0.00574578
O        0.00411251       3.49638664      12.23008024        3       0.00284477       0.00067592       0.09237314
C       -3.02906858       5.24590424      10.00630273        2       0.00117412      -0.00107143      -0.00213165
Ti      -3.02979308       6.99481486      11.29192602        0       0.00141419      -0.00208172       0.00284139
Ti      -1.51385854       6.11984458       8.71435956        0      -0.00015521      -0.00018924      -0.00225411
O       -3.02852071       6.99394573       7.77301673        1      -0.00016417       0.00005293       0.00187598
O       -1.51395270       6.12362510      12.23008024        3       0.00121300       0.00021738       0.12500526
C       -4.54394855       7.86967000      10.00191404        2      -0.00071924       0.00039880      -0.00013330
Ti      -4.54372114       9.61888094      11.29178877        0      -0.00309923       0.00076784       0.00371908
Ti      -3.02887528       8.74435986       8.71129552        0      -0.00075579      -0.00198645       0.00056299
O       -4.54421510       9.61966272       7.77232098        1      -0.00066254       0.00002239       0.00277020
O       -3.02897090       8.74490144      12.23008024        3      -0.00043382      -0.00037285       0.11081242
C        3.03103119      -0.00243641      10.00184931        2       0.00044035      -0.00026777       0.00132928
Ti       3.03100873       1.74693924      11.29198329        0      -0.00245146       0.00044706       0.00293215
Ti       4.54619530       0.87238010       8.71191758        0       0.00164123       0.00103598      -0.00036122
O        3.03071272       1.74696304       7.77252217        1      -0.00114393      -0.00025348       0.00257382
O        4.54485255       0.87122891      12.23008024        3      -0.00061184      -0.00085599       0.11196499
C        1.51658792       2.62171445      10.00450114        2      -0.00012177       0.00034413      -0.00448027
Ti       1.51719511       4.37146365      11.29148493        0      -0.00375639      -0.00230862       0.00301036
Ti       3.03116345       3.49636054       8.71171321        0      -0.00208079      -0.00260340       0.00135332
O        1.51393892       4.36996894       7.77396336        1       0.00397220       0.00140203      -0.00070034
O        3.03131907       3.49590187      12.23008024        3       0.00143926       0.00233290       0.11859591
C        0.00148716       5.24616737      10.00534987        2       0.00077614      -0.00046062      -0.00472247
Ti       0.00099378       6.99460809      11.29211410        0      -0.00328956      -0.00002704       0.00269521
Ti       1.51614290       6.12061865       8.71158302        0       0.00033527      -0.00028136       0.00115531
O        0.00035305       6.99448292       7.77276735        1       0.00035732      -0.00141947       0.00108969
O        1.51593647       6.12112432      12.23008024        3       0.00136816       0.00004595       0.11135699
C       -1.51403016       7.86962731      10.00220321        2      -0.00028771       0.00075677      -0.00035366
Ti      -1.51380268       9.61884140      11.29249473        0      -0.00115727      -0.00084984       0.00095590
Ti       0.00108688       8.74438496       8.71147589        0       0.00020766       0.00037684       0.00238825
O       -1.51381190       9.61931627       7.77181896        1       0.00084007      -0.00095395       0.00191201
O        0.00045283       8.74356148      12.23008024        3      -0.00319366       0.00067149       0.11372081
C        6.06102262      -0.00274760      10.00287589        2      -0.00168492      -0.00064194      -0.00151093
Ti       6.06072185       1.74761699      11.29264160        0       0.00327145      -0.00144347       0.00264344
Ti       7.57654072       0.87228464       8.71605901        0       0.00007010      -0.00038522      -0.00354250
O        6.06265326       1.74708256       7.77423786        1      -0.00103546      -0.00049285       0.00074904
O        7.57198907       0.86992208      12.23008024        3      -0.00164817      -0.00121262       0.11429299
C        4.54583266       2.62173060      10.00244863        2      -0.00131018      -0.00003819      -0.00098478
Ti       4.54511659       4.37133486      11.29200865        0       0.00274967      -0.00256689       0.00154631
Ti       6.06088893       3.49653361       8.71267197        0      -0.00027702      -0.00138273       0.00091021
O        4.54665326       4.37008953       7.77219975        1      -0.00070942       0.00197796       0.00076227
O        6.05965483       3.49690310      12.23008024        3       0.00063862      -0.00045258       0.12463835
C        3.03136860       5.24588874      10.00171899        2       0.00115411       0.00016844      -0.00191425
Ti       3.03062056       6.99451269      11.29171195        0       0.00049477       0.00078583       0.00216315
Ti       4.54617559       6.12046019       8.71203826        0      -0.00188959       0.00055052      -0.00597887
O        3.03073614       6.99541489       7.77155701        1      -0.00142311       0.00021163       0.00217483
O        4.54601342       6.12055955      12.23008024        3       0.00061581      -0.00072910       0.10869493
C        1.51604758       7.86934070      10.00170149        2      -0.00069420      -0.00055035      -0.00003306
Ti       1.51604170       9.61733082      11.29202284        0      -0.00167583       0.00332082       0.00303176
Ti       3.03103362       8.74416628       8.71180003        0      -0.00004466      -0.00042475       0.00217531
O        1.51645453       9.62032695       7.77346271        1       0.00059514      -0.00019208       0.00073432
O        3.03024149       8.74137068      12.23008024        3      -0.00048002      -0.00101391       0.11163167
C        9.09087345      -0.00338729      10.00704881        2      -0.00038439      -0.00076799      -0.00593468
Ti       9.09245794       1.74513223      11.30874986        0       0.00135914      -0.00694117       0.00363744
Ti      10.60596627       0.87190683       8.71837568        0       0.00023086       0.00150477      -0.00651649
O        9.09194112       1.74759470       7.78018664        1      -0.00173267       0.00065770      -0.00657271
O       10.60870371       0.86818392      12.23008024        3      -0.00011579      -0.00225757       0.09140359
C        7.57598169       2.62146183      10.00800808        2       0.00083627      -0.00113001      -0.00424624
Ti       7.57271935       4.37288034      11.28989933        0      -0.00121770       0.00104078       0.00165668
Ti       9.09113404       3.49608316       8.72120202        0       0.00051651      -0.00105059      -0.00667544
O        7.57823135       4.36933935       7.77570523        1      -0.00436964       0.00275773      -0.00058064
O        9.08607883       3.49918798      12.23008024        3       0.00284689      -0.00277493       0.22726549
C        6.05933442       5.24675397      10.00210442        2       0.00069215      -0.00124990      -0.00238848
Ti       6.06050130       6.99514553      11.29183972        0       0.00313583       0.00023551       0.00204866
Ti       7.57594435       6.12027604       8.71185179        0       0.00033840       0.00039951       0.00156358
O        6.06188917       6.99521030       7.77194440        1      -0.00225396      -0.00169378       0.00069908
O        7.57501969       6.12146060      12.23008024        3       0.00005286      -0.00168188       0.10631371
C        4.54603687       7.86884406      10.00173148        2      -0.00009257      -0.00188677      -0.00211084
Ti       4.54615171       9.61689814      11.29219328        0      -0.00103392       0.00468012       0.00416683
Ti       6.06113871       8.74443639       8.71169236        0       0.00039381       0.00249867       0.00141290
O        4.54566647       9.62150959       7.77447540        1       0.00033077      -0.00425860      -0.00068764
O        6.06208186       8.74433076      12.23008024        3      -0.00185042      -0.00195222       0.11505730
C        0.06446834       0.05879945      17.27783325       10       0.00493136      -0.00176317      -0.03723336
C        1.27385099       0.76027089      17.28622148       10      -0.00207024       0.00164542      -0.01696569
C       -1.13152489       2.14935342      17.25346258       10       0.00596765      -0.00005480       0.46555751
C        0.06115319       2.85795978      17.26110132       10       0.00380599       0.00105135       0.01539353
C       -2.36601026       4.28564230      17.25345703       10      -0.00151093       0.00224979       0.25783896
C       -1.15448101       4.96318242      17.26109876       10      -0.00284884       0.00280643       0.01909575
C       -3.57794406       6.36697112      17.27783270       10       0.00124107       0.00328760       0.00378503
C       -2.36506930       7.06307465      17.28622128       10      -0.00044122       0.00311668      -0.00581744
C       -4.78890211       8.46003751      17.27594031       10       0.00466807      -0.00076998      -0.02468964
C       -3.57688431       9.15924626      17.28722997       10      -0.00230559       0.00188355      -0.03294160
C        2.48448400       0.06148140      17.28825499       10       0.00065965      -0.00092020      -0.02838222
C        3.69500586       0.76194844      17.28722988       10      -0.00176404      -0.00054329      -0.03357027
C        1.27678959       2.15836069      17.27783346       10       0.00674488       0.00236648      -0.03602833
C        2.48416596       2.86084786      17.26877333       10       0.00315059       0.00107793      -0.03749248
C        0.05837979       4.26018793      17.23497344       10      -0.00134693       0.00234825       0.12837393
C        1.26905681       4.95949017      17.24664339       10      -0.00281686       0.00061527      -0.07783285
C       -1.15266533       6.36576250      17.27783270       10       0.00041866       0.00546641      -0.01234818
C        0.05930526       7.06098391      17.26877343       10      -0.00007157       0.00119473      -0.04373297
C       -2.36497312       8.46123571      17.28825520       10       0.00037217       0.00298653      -0.03144431
C       -1.15294304       9.15914200      17.28722997       10      -0.00071790       0.00227437      -0.03468959
C        4.90561940       0.06156970      17.28825499       10      -0.00413760      -0.00397292      -0.03227158
C        6.11645696       0.76064564      17.28622148       10      -0.00457325       0.00144973      -0.00051791
C        3.69460708       2.16103660      17.27594018       10       0.00401696      -0.00210420      -0.02142449
C        4.90518528       2.86103895      17.26877333       10       0.00227904       0.00219207      -0.02720918
C        2.48264080       4.26030002      17.25488983       10      -0.00044425      -0.00098071      -0.04512169
C        3.69436779       4.96045198      17.25210197       10      -0.00127270       0.00059590      -0.02215231
C        1.27058316       6.36025233      17.25488973       10      -0.00018184       0.00021760      -0.05037592
C        2.48232924       7.06016938      17.25210186       10       0.00433106      -0.00266976      -0.02000354
C        0.05876640       8.45959016      17.27594031       10      -0.00202386      -0.00110388      -0.02258163
C        1.27026961       9.15831919      17.26877318       10       0.00007980       0.00121974      -0.04564469
C        7.32649028       0.05943141      17.27783325       10      -0.00646446      -0.00215628      -0.01227580
C        8.54011936       0.76241998      17.26110113       10      -0.00472297       0.00204216       0.02821857
C        6.11275739       2.15888873      17.27783346       10      -0.00044937      -0.00030454       0.00721889
C        7.32786799       2.85882735      17.26110132       10      -0.00038298       0.00169881       0.00237954
C        4.90641940       4.26054112      17.25488983       10      -0.00140315      -0.00062184      -0.03866813
C        6.12003247       4.95992293      17.24664339       10      -0.00450308       0.00324399      -0.05667718
C        3.69428969       6.36029730      17.24902397       10       0.00516113      -0.00288058      -0.05070581
C        4.90643149       7.06043883      17.25210186       10       0.00197582      -0.00043889      -0.01850702
C        2.48266094       8.45957323      17.25488956       10      -0.00078191      -0.00343780      -0.04725925
C        3.69484684       9.16127213      17.24664298       10      -0.00125950       0.00088099      -0.07769769
C        9.75505417       0.06315049      17.23497339       10      -0.00110596       0.00084551       0.13099077
C       10.97090746       0.76194959      17.26110113       10       0.00022128      -0.00233199       0.00762011
C        8.52127197       2.15071968      17.25346258       10       0.00203779       0.00279124       0.22778018
C        9.75279010       2.86344801      17.00910332       10       0.00572132      -0.00033402      -2.09034872
C        7.33087906       4.26094725      17.23497344       10      -0.00532864       0.00252061       0.13216283
C        8.54365554       4.96474395      17.26109876       10      -0.00248204      -0.00079455      -0.00742257
C        6.11855247       6.36061690      17.25488973       10       0.00407467       0.00327424      -0.04731312
C        7.32991221       7.06155913      17.26877343       10       0.00406436      -0.00278020      -0.03467317
C        4.90698183       8.45999314      17.25488956       10       0.00402011       0.00004257      -0.05207050
C        6.11971353       9.15829125      17.26877318       10      -0.00018885      -0.00325293      -0.04047582
O        9.82528126       2.81384896      15.42670996       11      -0.00267413      -0.00354346       0.00518028
H        9.09155932       3.32318910      15.03533026       12       0.00207330       0.00657828      -0.00544926
