130
Lattice="12.12 0.0 0.0 -6.06 10.496227893867395 0.0 0.0 0.0 40.0" Properties=species:S:1:pos:R:3:tags:I:1:forces:R:3 energy=-1200.466233788864 stress="0.0028154063024183017 3.934375090702967e-08 -1.8538127265926003e-07 3.934375090702967e-08 0.0028153801952757827 -2.863316376441701e-07 -1.8538127265926003e-07 -2.863316376441701e-07 0.0020726192540499724" pbc="T T F"
C       -0.00000642      -0.00003199      10.00106206        2      -0.00009958      -0.00004422       0.00175912
Ti       0.00001494       1.74951327      11.30895750        0      -0.00002358       0.00013472      -0.00060086
Ti       1.51490463       0.87462486       8.69032119        0      -0.00011393      -0.00005623       0.00134730
O       -0.00001565       1.74940706       7.76918245        1      -0.00004078       0.00007029       0.00120773
O        1.51412540       0.87421704      12.23159545        3       0.00011456      -0.00024009       0.10919975
C       -1.51501401       2.62406371      10.00164291        2       0.00012817      -0.00013391       0.00203421
Ti      -1.51496842       4.37352082      11.30891463        0      -0.00003116      -0.00007578      -0.00031505
Ti       0.00001739       3.49876416       8.69028296        0       0.00003466       0.00011067       0.00130086
O       -1.51504837       4.37342684       7.76923150        1      -0.00014341      -0.00009640       0.00142627
O        0.00034909       3.49866940      12.23159545        3      -0.00028343       0.00001626       0.09637245
C       -3.02989416       5.24815172      10.00187650        2      -0.00003116       0.00000095       0.00207923
Ti      -3.02988005       6.99747122      11.30890090        0      -0.00000824      -0.00004882      -0.00036872
Ti      -1.51495932       6.12282900       8.69035764        0      -0.00003360      -0.00007424       0.00141421
O       -3.03003647       6.99743750       7.76923980        1      -0.00016558      -0.00013652       0.00147902
O       -1.51407984       6.12335732      12.23159545        3      -0.00023707      -0.00018714       0.09039958
C       -4.54498985       7.87217386      10.00171463        2       0.00004665       0.00005173       0.00196458
Ti      -4.54480023       9.62144050      11.30897108        0       0.00006291      -0.00007993      -0.00066331
Ti      -3.02995260       8.74686005       8.69029057        0       0.00010439      -0.00005286       0.00122102
O       -4.54496951       9.62149601       7.76917407        1       0.00000693      -0.00011145       0.00127570
O       -3.02957784       8.74722524      12.23159545        3      -0.00002243      -0.00001681       0.09395741
C        3.03000427       0.00001242      10.00153802        2      -0.00002145      -0.00007923       0.00178386
Ti       3.02983134       1.74921967      11.30886606        0      -0.00002514      -0.00003588      -0.00040985
Ti       4.54491943       0.87464857       8.69024781        0      -0.00006842       0.00007975       0.00133118
O        3.03002584       1.74938099       7.76917961        1      -0.00007572      -0.00000527       0.00126321
O        4.54480574       0.87444977      12.23159545        3      -0.00006117      -0.00003281       0.05278101
C        1.51504278       2.62406263      10.00151744        2      -0.00015876      -0.00013830       0.00197431
Ti       1.51508459       4.37358502      11.30891014        0       0.00017545       0.00005986      -0.00039280
Ti       3.02992557       3.49867284       8.69024048        0       0.00002261      -0.00009278       0.00149786
O        1.51501953       4.37342817       7.76919221        1       0.00008646      -0.00009355       0.00125372
O        3.02976074       3.49847745      12.23159545        3      -0.00001901      -0.00023022       0.05078301
C        0.00001256       5.24792640      10.00140808        2      -0.00004128       0.00013092       0.00185971
Ti       0.00000121       6.99747415      11.30888775        0      -0.00008007      -0.00009605      -0.00089792
Ti       1.51496684       6.12282735       8.69031211        0       0.00001046      -0.00001946       0.00138741
O       -0.00001756       6.99745871       7.76925341        1      -0.00005496      -0.00010002       0.00115219
O        1.51410272       6.12340856      12.23159545        3       0.00025684      -0.00020797       0.10105829
C       -1.51511845       7.87224294      10.00134474        2       0.00008087      -0.00008577       0.00186749
Ti      -1.51476116       9.62153097      11.30891695        0       0.00009886       0.00003427      -0.00057650
Ti       0.00000198       8.74681300       8.69031992        0       0.00003432      -0.00003245       0.00117764
O       -1.51499858       9.62155541       7.76919638        1      -0.00004108       0.00007398       0.00117421
O        0.00007585       8.74584932      12.23159545        3      -0.00012005       0.00014298       0.10778604
C        6.05999716      -0.00011151      10.00163365        2      -0.00007541      -0.00002066       0.00192425
Ti       6.05995859       1.74934192      11.30871056        0      -0.00015711       0.00000974      -0.00033568
Ti       7.57506236       0.87464311       8.69026090        0       0.00006563       0.00012144       0.00144945
O        6.06001881       1.74939089       7.76928320        1       0.00003859       0.00007462       0.00150420
O        7.57491396       0.87436044      12.23159545        3       0.00011666       0.00006256       0.05004971
C        4.54487746       2.62397323      10.00159291        2      -0.00005697      -0.00005101       0.00202150
Ti       4.54498622       4.37335699      11.30873875        0      -0.00007745      -0.00016106      -0.00014512
Ti       6.05998716       3.49872342       8.69021959        0       0.00000378      -0.00001162       0.00194219
O        4.54502966       4.37344215       7.76929293        1       0.00004971       0.00001200       0.00162163
O        6.05974715       3.49838116      12.23159545        3       0.00009389      -0.00010741       0.06840685
C        3.02990436       5.24815024      10.00172056        2      -0.00000714      -0.00004465       0.00211921
Ti       3.02989735       6.99740073      11.30888710        0      -0.00019957      -0.00021947      -0.00040626
Ti       4.54500416       6.12287186       8.69026805        0       0.00009841      -0.00005445       0.00163703
O        3.03004368       6.99745455       7.76921182        1       0.00019713      -0.00011925       0.00130149
O        4.54470085       6.12290427      12.23159545        3       0.00005459       0.00005759       0.04772157
C        1.51511577       7.87222033      10.00127838        2      -0.00024616      -0.00008320       0.00173715
Ti       1.51482388       9.62150208      11.30891043        0      -0.00025420       0.00004448      -0.00056068
Ti       3.02995010       8.74683610       8.69028852        0      -0.00013762      -0.00009904       0.00125864
O        1.51500503       9.62157913       7.76920994        1       0.00003313       0.00013721       0.00117535
O        3.02949292       8.74680590      12.23159545        3      -0.00012540       0.00010096       0.09639460
C        9.08999558       0.00000187      10.00161894        2       0.00002890      -0.00013067       0.00199207
Ti       9.09014128       1.74919557      11.30887850        0      -0.00007516      -0.00010365      -0.00024878
Ti      10.60511560       0.87462053       8.69032016        0       0.00014516      -0.00010165       0.00137387
O        9.08997657       1.74940382       7.76923354        1       0.00004924       0.00003016       0.00144894
O       10.60596692       0.87414465      12.23159545        3      -0.00002508      -0.00015059       0.10040244
C        7.57510624       2.62398844      10.00170315        2      -0.00004575      -0.00004652       0.00201877
Ti       7.57496475       4.37336331      11.30880968        0      -0.00005003      -0.00003095      -0.00008086
Ti       9.09007879       3.49868577       8.69029883        0      -0.00004325      -0.00009458       0.00169356
O        7.57501101       4.37344205       7.76933506        1       0.00000849      -0.00000162       0.00180612
O        9.09029266       3.49849403      12.23159545        3      -0.00010282      -0.00015759       0.04836855
C        6.06000905       5.24820372      10.00172335        2      -0.00004064      -0.00001962       0.00220004
Ti       6.05998116       6.99768470      11.30887708        0      -0.00018756      -0.00016307      -0.00014859
Ti       7.57499726       6.12287688       8.69030620        0      -0.00008624      -0.00002836       0.00172963
O        6.06002254       6.99744134       7.76924642        1       0.00001958      -0.00001095       0.00164876
O        7.57513310       6.12311005      12.23159545        3       0.00003289       0.00010880       0.04824010
C        4.54499052       7.87215836      10.00166912        2      -0.00009560       0.00009769       0.00214184
Ti       4.54475301       9.62140637      11.30894719        0      -0.00030153      -0.00030731      -0.00053902
Ti       6.06000298       8.74700558       8.69030938        0      -0.00001070       0.00014723       0.00140535
O        4.54497193       9.62151630       7.76918647        1      -0.00006641      -0.00009185       0.00122936
O        6.05998996       8.74794942      12.23159545        3       0.00017078       0.00011093       0.09143624
C        0.04477111       0.06753847      17.30527966       10       0.00591161       0.00153289      -0.02443550
C        1.25636098       0.76703232      17.30527966       10       0.00331985       0.00202929      -0.02659278
C       -1.16668123       2.16673502      17.30527966       10      -0.00104884       0.00065255      -0.02554446
C        0.04520507       2.86598431      17.30527966       10      -0.00248359       0.00166288      -0.03096704
C       -2.37859755       4.26628211      17.30527966       10       0.00096386      -0.00065228      -0.03151251
C       -1.16680197       4.96569235      17.30527966       10       0.00084106       0.00127402      -0.02925724
C       -3.59074317       6.36561206      17.30527966       10       0.00318949      -0.00085010      -0.02655254
C       -2.37903917       7.06529997      17.30527966       10       0.00212517      -0.00112907      -0.02904414
C       -4.80276606       8.46480152      17.30527966       10      -0.00004890      -0.00066246      -0.02899917
C       -3.59120145       9.16459058      17.30527966       10      -0.00247307      -0.00135868      -0.02964016
C        2.46869069       0.06737212      17.30527966       10       0.00454860       0.00201371      -0.02242233
C        3.68025578       0.76709786      17.30527966       10       0.00449633       0.00078685      -0.03650774
C        1.25696672       2.16666831      17.30527966       10      -0.00123652       0.00294013      -0.02251020
C        2.46864633       2.86625829      17.30527966       10      -0.00113277      -0.00019140      -0.03250254
C        0.04503195       4.26628105      17.30527966       10       0.00039810       0.00141086      -0.02561329
C        1.25675729       4.96574733      17.30527966       10       0.00080022       0.00002375      -0.02498000
C       -1.16667683       6.36558722      17.30527966       10       0.00208276       0.00173455      -0.03316993
C        0.04487050       7.06514045      17.30527966       10       0.00147505      -0.00151991      -0.02431751
C       -2.37854832       8.46446880      17.30527966       10      -0.00074251      -0.00066941      -0.02894317
C       -1.16703016       9.16426960      17.30527966       10      -0.00081300      -0.00138250      -0.02254878
C        4.89281309       0.06707911      17.30527966       10       0.00301356       0.00032137      -0.03679437
C        6.10483221       0.76696435      17.30527966       10       0.00225405       0.00214276      -0.03389118
C        3.68085287       2.16665248      17.30527966       10      -0.00155765      -0.00013740      -0.03390375
C        4.89284244       2.86634223      17.30527966       10      -0.00164122      -0.00034472      -0.00993125
C        2.46856883       4.26634642      17.30527966       10       0.00017248      -0.00068273      -0.03690131
C        3.68076227       4.96586732      17.30527966       10       0.00006788       0.00071155      -0.02984251
C        1.25646523       6.36567028      17.30527966       10       0.00182235       0.00048227      -0.03127710
C        2.46882453       7.06521431      17.30527966       10       0.00169944       0.00018766      -0.02486501
C        0.04520106       8.46420928      17.30527966       10      -0.00218513      -0.00200689      -0.02718835
C        1.25731256       9.16417533      17.30527966       10      -0.00297490      -0.00022593      -0.02260588
C        7.31691668       0.06698562      17.30527966       10       0.00087335       0.00148749      -0.03180976
C        8.52936771       0.76707455      17.30527966       10       0.00082318       0.00075813      -0.03666850
C        6.10510114       2.16638694      17.30527966       10      -0.00131239       0.00165809      -0.00992958
C        7.31735903       2.86639995      17.30527966       10      -0.00197018      -0.00155441      -0.00965008
C        4.89276722       4.26615841      17.30527966       10      -0.00052122       0.00010491      -0.00967164
C        6.10496375       4.96613000      17.30527966       10      -0.00021681      -0.00117041      -0.00960912
C        3.68047259       6.36559462      17.30527966       10       0.00126913       0.00022663      -0.02691045
C        4.89292169       7.06569662      17.30527966       10       0.00129906      -0.00283865      -0.03239619
C        2.46887755       8.46438613      17.30527966       10      -0.00450228      -0.00073999      -0.03066026
C        3.68155377       9.16457424      17.30527966       10      -0.00458396      -0.00197218      -0.02556054
C        9.74095480       0.06737101      17.30527966       10       0.00246062       0.00140087      -0.02557682
C       10.95338610       0.76711370      17.30527966       10       0.00012636       0.00077336      -0.03149554
C        8.52933415       2.16658819      17.30527966       10      -0.00204825       0.00125292      -0.02869025
C        9.74161368       2.86624258      17.30527966       10      -0.00317074       0.00107009      -0.02639035
C        7.31723133       4.26620508      17.30527966       10      -0.00073795      -0.00110201      -0.00956569
C        8.52922990       4.96591213      17.30527966       10      -0.00096708       0.00089539      -0.02358563
C        6.10480842       6.36567065      17.30527966       10       0.00255069      -0.00146059      -0.02363632
C        7.31687526       7.06561266      17.30527966       10       0.00108733      -0.00045139      -0.02617950
C        4.89309653       8.46486407      17.30527966       10      -0.00337169      -0.00197034      -0.02918371
C        6.10530160       9.16492039      17.30527966       10      -0.00593275      -0.00146833      -0.03284837
