132
Lattice="12.12 0.0 0.0 -6.06 10.496227893867395 0.0 0.0 0.0 40.0" Properties=species:S:1:pos:R:3:tags:I:1:forces:R:3 energy=-1206.8823739633929 stress="0.002571036886140775 1.799899507367405e-07 5.506819090103933e-07 1.799899507367405e-07 0.002521848990323706 -6.253243550387588e-07 5.506819090103933e-07 -6.253243550387588e-07 0.002964688331060464" pbc="T T F"
C        0.27147257       0.36622369       9.98029485        2      -0.00218154       0.00174527       0.00116428
Ti       0.25738182       2.12042396      11.29574036        0      -0.00292135      -0.00102968       0.00711891
Ti       1.77256367       1.24892909       8.70199648        0       0.00510964      -0.00026922       0.00170528
O        0.24544055       2.12767338       7.77110436        1       0.00120811      -0.00044046       0.00123932
O        1.79127951       1.24498093      12.23008024        3      -0.00338680       0.00122903      -0.40340536
C       -1.27395592       2.98748331      10.03910747        2      -0.00177760       0.00406837       0.00198674
Ti      -1.22706936       4.77640845      11.22949924        0      -0.00206732      -0.00023679       0.00142164
Ti       0.26372387       3.87365463       8.70137314        0      -0.00126527       0.00474591       0.00364271
O       -1.25769443       4.73441335       7.76389524        1       0.00191860       0.00026607       0.00890798
O        0.25788854       3.88322122      12.23008024        3       0.00136189      -0.00138817      -0.45051930
C       -2.77230095       5.64434065       9.95693722        2       0.00127086       0.00184309      -0.00128129
Ti      -2.77249359       7.37827473      11.28388156        0       0.00081702      -0.00123606       0.00343751
Ti      -1.26154639       6.50231648       8.68399978        0       0.00446782      -0.00329171       0.00052199
O       -2.77227630       7.38094612       7.74173701        1       0.00005555      -0.00312513       0.00042170
O       -1.24327129       6.53800083      12.23008024        3      -0.00062689       0.00302242      -0.52958367
C       -4.28548617       8.25086257       9.98325029        2      -0.00122416      -0.00175558       0.00169322
Ti      -4.28046093       9.99445648      11.26869074        0      -0.00098826       0.00000614      -0.00159937
Ti      -2.77233077       9.12533172       8.69098583        0      -0.00136532       0.00362982      -0.00058463
O       -4.28658822       9.99968021       7.75146772        1      -0.00325470       0.00031130       0.00095978
O       -2.77279784       9.12240816      12.23008024        3       0.00296658      -0.00268591      -0.41740924
C        3.28729275       0.37508832       9.98994753        2       0.00248667      -0.00232728       0.00036229
Ti       3.28692263       2.12464301      11.28313167        0       0.00508355      -0.00001902       0.00106573
Ti       4.80210427       1.24920598       8.70298652        0      -0.00224104      -0.00189267       0.00037405
O        3.28780782       2.12428662       7.75919776        1      -0.00117213      -0.00191521      -0.00303618
O        4.78352198       1.24534627      12.23008024        3       0.00475915      -0.00212326      -0.39960541
C        1.77758352       3.00189738       9.99247609        2      -0.00174890      -0.00216433       0.00097217
Ti       1.77603381       4.74748990      11.27705874        0      -0.00203450      -0.00562171       0.00037725
Ti       3.28757872       3.87259921       8.70082328        0       0.00173538      -0.00142548      -0.00431246
O        1.76833815       4.74355886       7.75853661        1       0.00223365       0.00040225       0.00136173
O        3.28755689       3.87903226      12.23008024        3      -0.00061500      -0.00034907      -0.38383044
C        0.26712367       5.63260810       9.98087912        2      -0.00042225       0.00343275       0.00428338
Ti       0.25497051       7.37172961      11.28304522        0       0.00280317      -0.00276230       0.00004909
Ti       1.77157977       6.50047357       8.69380367        0      -0.00232883       0.00069467      -0.00090042
O        0.26016103       7.37617667       7.75048152        1       0.00092906       0.00111902      -0.00048919
O        1.77613213       6.49456140      12.23008024        3       0.00273716      -0.00224964      -0.44176529
C       -1.25921615       8.25086184       9.98373099        2       0.00095404      -0.00128627      -0.00017857
Ti      -1.26450144       9.99438346      11.26855301        0       0.00195855       0.00246464       0.00093722
Ti       0.25683981       9.12436137       8.69768327        0      -0.00000019      -0.00047693      -0.00326082
O       -1.25784355      10.00000145       7.75203441        1       0.00124936      -0.00168240       0.00041413
O        0.24240643       9.10343696      12.23008024        3      -0.00253777       0.00199511      -0.38783767
C        6.30373148       0.36629085       9.98144247        2      -0.00034287       0.00054654      -0.00184870
Ti       6.31765279       2.12023504      11.29750006        0       0.00370832      -0.00065061       0.00402984
Ti       7.82783131       1.25017258       8.72277701        0       0.00683107      -0.00067417      -0.00009095
O        6.32896746       2.12785989       7.77268632        1       0.00391150      -0.00266188      -0.00429851
O        7.67484713       1.13462636      12.23008024        3      -0.00082275      -0.00582301      -0.67178509
C        4.79762295       3.00172169       9.99335780        2      -0.00039103      -0.00004656      -0.00305042
Ti       4.79967651       4.74673840      11.27688174        0       0.00014727      -0.00167719       0.00184856
Ti       6.31176404       3.87343274       8.70261162        0      -0.00217192       0.00728700       0.00074668
O        4.80741979       4.74365165       7.75929364        1      -0.00357143      -0.00166454      -0.00270877
O        6.31790454       3.88315657      12.23008024        3      -0.00374001      -0.00097123      -0.44454347
C        3.28808911       5.62240052       9.98787152        2      -0.00504113      -0.00020074      -0.00231121
Ti       3.28805567       7.36211010      11.26987183        0      -0.00271483       0.00071445       0.00303015
Ti       4.80394237       6.50063525       8.69322948        0       0.00052132      -0.00316095       0.00314108
O        3.28743128       7.38059857       7.75567425        1       0.00262328      -0.00112903       0.00000433
O        4.79962169       6.49431567      12.23008024        3      -0.00414882       0.00051685      -0.44014738
C        1.77299296       8.23735984       9.98589504        2      -0.00273813      -0.00081096      -0.00041158
Ti       1.76019923       9.97784076      11.29408925        0       0.00220302       0.00268708       0.00007341
Ti       3.28753058       9.11788218       8.70960148        0      -0.00151184       0.00678115       0.00062218
O        1.78237421      10.00467689       7.77355773        1      -0.00067415       0.00241860      -0.00346920
O        3.28770668       9.09984758      12.23008024        3       0.00216693      -0.00192000      -0.35781201
C        9.34766334       0.38437725      10.04123893        2       0.00029013       0.00049384      -0.00320569
Ti       9.34773715       2.05417536      11.28662221        0       0.00100807       0.00090619       0.00196758
Ti      10.86653769       1.25028397       8.72119356        0      -0.00276529      -0.00141271       0.00573231
O        9.34692882       2.12062109       7.77956885        1       0.00251455      -0.00115879       0.00514205
O       11.02192178       1.13359410      12.23008024        3      -0.00231142      -0.00053760      -0.67615001
C        7.84973823       2.98778462      10.03985680        2      -0.00208748      -0.00069191      -0.00204966
Ti       7.80307254       4.77662060      11.22889554        0      -0.00334496       0.00048575       0.00423093
Ti       9.34765301       3.87137094       8.71933578        0       0.00035432       0.00256728       0.00146742
O        7.83235947       4.73404983       7.76483807        1       0.00192744       0.00273119       0.00180374
O        9.34738566       4.24634740      12.23008024        3       0.00271924      -0.00020510      -0.41743767
C        6.30847060       5.63266006       9.98142082        2      -0.00256835       0.00489227      -0.00192314
Ti       6.32006080       7.37141701      11.28312690        0       0.00312784      -0.00087018      -0.00150098
Ti       7.83689516       6.50260028       8.68363969        0      -0.00431437      -0.00460854       0.00378422
O        6.31525082       7.37580697       7.75001860        1      -0.00117311       0.00320697      -0.00020817
O        7.81906849       6.53862729      12.23008024        3      -0.00220581      -0.00013076      -0.52912131
C        4.80281181       8.23721169       9.98555467        2      -0.00142809       0.00158468       0.00101889
Ti       4.81533237       9.97819484      11.29409138        0      -0.00277133      -0.00219638      -0.00354315
Ti       6.31811507       9.12456335       8.69737208        0       0.00310680      -0.00234383      -0.00265041
O        4.79201744      10.00453275       7.77275020        1       0.00507075       0.00210850      -0.00139552
O        6.33341139       9.10338503      12.23008024        3      -0.00275155       0.00169811      -0.39033162
C       -0.34152000      -0.53993922      15.14625431       10       0.00032832      -0.00328996       0.08738649
C        0.86697177       0.16307964      15.15464254       10      -0.00198871      -0.00102023       0.13359566
C       -1.53517268       1.54870429      15.12188364       10       0.00075025      -0.00156745       0.54045013
C       -0.34653524       2.26136614      15.12952238       10       0.00199725       0.00044274       0.09549450
C       -2.77155241       3.69509625      15.12187809       10       0.00024364       0.00626868       1.48723988
C       -1.56105837       4.36705638      15.12951982       10       0.00080965       0.00090369       0.17349827
C       -3.98435896       5.77101916      15.14625376       10       0.00198308      -0.00065582       0.12775929
C       -2.77164072       6.46679305      15.15464234       10      -0.00151295      -0.00293465       0.08646970
C       -5.19557258       7.86229155      15.14436137       10      -0.00061639      -0.00083786       0.08547327
C       -3.98376713       8.56215168      15.15565103       10      -0.00384787       0.00008263       0.10851592
C        2.07807829      -0.53567797      15.15667605       10      -0.00047840       0.00009920       0.06475959
C        3.28852828       0.16460734      15.15565094       10      -0.00194210       0.00422786       0.10646087
C        0.87076825       1.56131378      15.14625452       10      -0.00119709      -0.00274588       0.08682914
C        2.07721205       2.26379169      15.13719439       10      -0.00105959      -0.00131630       0.12528964
C       -0.34762442       3.66314567      15.10339450       10       0.00036755       0.00120870       0.35147091
C        0.86215686       4.36212950      15.11506445       10       0.00075344      -0.00355797       0.08173029
C       -1.55899818       5.77099736      15.14625376       10       0.00217126       0.00054477       0.12769566
C       -0.34697735       6.46346251      15.13719449       10       0.00233732       0.00039516       0.10813848
C       -2.77157304       7.86516086      15.15667626       10       0.00071322      -0.00167515       0.05431006
C       -1.55932488       8.56214990      15.15565103       10       0.00119713       0.00053257       0.10843617
C        4.49893340      -0.53567185      15.15667605       10      -0.00093833      -0.00102871       0.06474408
C        5.71001157       0.16308388      15.15464254       10       0.00254209      -0.00144728       0.13357558
C        3.28849490       1.56383065      15.14436124       10       0.00082201       0.00154237       0.07372389
C        4.49980603       2.26375689      15.13719439       10      -0.00008640      -0.00118020       0.12535692
C        2.07625309       3.66316857      15.12331089       10      -0.00014139       0.00040692       0.07919652
C        3.28849353       4.36304755      15.12052303       10      -0.00224743      -0.00174236       0.19294869
C        0.86431010       5.76272721      15.12331079       10      -0.00039806      -0.00289088       0.10362759
C        2.07626599       6.46254839      15.12052292       10      -0.00407110       0.00263191       0.18902865
C       -0.34759929       7.86227305      15.14436137       10      -0.00037661      -0.00137416       0.08538773
C        0.86416769       8.56053388      15.13719424       10       0.00152126       0.00100624       0.14075576
C        6.91846326      -0.53993398      15.14625431       10      -0.00015370      -0.00254560       0.08739679
C        8.13303781       0.16270058      15.12952219       10      -0.00213939      -0.00294743       0.13673158
C        5.70625596       1.56128347      15.14625452       10       0.00203498      -0.00128637       0.08634786
C        6.92359215       2.26134521      15.12952238       10      -0.00178742       0.00078816       0.09499028
C        4.50070001       3.66311862      15.12331089       10      -0.00056682       0.00129724       0.07892800
C        5.71470947       4.36212225      15.11506445       10       0.00009946      -0.00350377       0.08220375
C        3.28837379       5.76289010      15.11744503       10       0.00058017       0.00265793       0.05910353
C        4.50046063       6.46255189      15.12052292       10       0.00364585       0.00222238       0.18899603
C        2.07653488       7.86191673      15.12331062       10       0.00087561      -0.00009570       0.07315514
C        3.28843316       8.56308674      15.11506404       10      -0.00185244       0.00287331       0.12773396
C        9.34844395      -0.53715140      15.10339445       10       0.00185558       0.00115456       0.35134090
C       10.56392602       0.16267631      15.12952219       10       0.00210010      -0.00283578       0.13704062
C        8.11232212       1.54873516      15.12188364       10      -0.00205694       0.00073374       0.53666267
C        9.34862316       2.26153339      14.87752438       10      -0.00292091       0.00219744      -1.01374623
C        6.92449855       3.66313907      15.10339450       10       0.00101207       0.00061771       0.35141276
C        8.13792396       4.36703049      15.12951982       10      -0.00193111       0.00273332       0.17401118
C        5.71237413       5.76272398      15.12331079       10       0.00186654      -0.00351297       0.10341865
C        6.92360956       6.46347521      15.13719449       10       0.00208703       0.00084492       0.10828146
C        4.50025089       7.86188866      15.12331062       10       0.00101712       0.00147383       0.07308696
C        5.71262456       8.56052677      15.13719424       10       0.00156783       0.00097594       0.14085205
O        9.34954898       2.32797847      13.37951423       11      -0.00568746       0.00441850       0.00265073
H        9.34645195       3.35637139      13.12010052       12       0.00413163       0.00540868      -0.00141552
