130
Lattice="12.12 0.0 0.0 -6.06 10.496227893867395 0.0 0.0 0.0 40.0" Properties=species:S:1:pos:R:3:tags:I:1:forces:R:3 energy=-1201.2588618233708 stress="0.0028763180633780434 5.3060264271387435e-08 -7.324745922588271e-07 5.3060264271387435e-08 0.002876156657814972 -1.1045448805177124e-06 -7.324745922588271e-07 -1.1045448805177124e-06 0.0022040635128712806" pbc="T T F"
C       -0.00005432      -0.00007499      10.00240208        2      -0.00013416      -0.00018873       0.00261639
Ti      -0.00006642       1.74914753      11.29283711        0      -0.00010551      -0.00015250       0.00145079
Ti       1.51498331       0.87466782       8.71173967        0      -0.00000334      -0.00005328       0.00302280
O       -0.00002402       1.74933446       7.77215851        1      -0.00008885      -0.00014292       0.00324469
O        1.51494327       0.87453264      12.23008024        3      -0.00015736      -0.00028009       0.09413395
C       -1.51505814       2.62398934      10.00239537        2      -0.00006906      -0.00023959       0.00259041
Ti      -1.51490561       4.37333341      11.29237332        0      -0.00003313      -0.00019115       0.00162239
Ti      -0.00000505       3.49868214       8.71168149        0      -0.00002326      -0.00008433       0.00293210
O       -1.51506518       4.37337477       7.77212207        1      -0.00006581      -0.00011378       0.00330699
O       -0.00003387       3.49814819      12.23008024        3      -0.00011930      -0.00032821       0.09543129
C       -3.02999765       5.24807674      10.00246922        2      -0.00004028      -0.00010534       0.00255319
Ti      -3.02989318       6.99754522      11.29235558        0      -0.00002226      -0.00021333       0.00157248
Ti      -1.51497110       6.12279793       8.71165511        0      -0.00003359      -0.00010716       0.00303541
O       -3.03006994       6.99742678       7.77211734        1      -0.00004102      -0.00010864       0.00329295
O       -1.51525199       6.12248315      12.23008024        3      -0.00015184      -0.00016790       0.10084418
C       -4.54503697       7.87211506      10.00239475        2      -0.00010705      -0.00004502       0.00259692
Ti      -4.54510744       9.62148704      11.29275256        0      -0.00009047      -0.00022342       0.00141603
Ti      -3.03003142       8.74686816       8.71165218        0      -0.00002122      -0.00007881       0.00300967
O       -4.54504034       9.62151944       7.77214751        1      -0.00007936      -0.00011980       0.00320904
O       -3.03029993       8.74697116      12.23008024        3      -0.00018582      -0.00010555       0.09344130
C        3.02997179      -0.00003752      10.00234870        2      -0.00013553      -0.00015596       0.00252543
Ti       3.02996428       1.74928745      11.29249210        0       0.00002247      -0.00006214       0.00157367
Ti       4.54498504       0.87464773       8.71170061        0      -0.00001672      -0.00004275       0.00299006
O        3.03003176       1.74939504       7.77214972        1      -0.00005677      -0.00009438       0.00328854
O        4.54475907       0.87455825      12.23008024        3      -0.00004591      -0.00020399       0.11099005
C        1.51498148       2.62398484      10.00237718        2      -0.00011396      -0.00026807       0.00246276
Ti       1.51489641       4.37326105      11.29242043        0      -0.00003633      -0.00022795       0.00164477
Ti       3.02996943       3.49873745       8.71173019        0      -0.00000519      -0.00005550       0.00293187
O        1.51503510       4.37337173       7.77212724        1      -0.00005665      -0.00014601       0.00330390
O        3.02986699       3.49836871      12.23008024        3      -0.00010211      -0.00020226       0.11202903
C       -0.00001851       5.24803291      10.00236280        2      -0.00013384      -0.00022529       0.00239613
Ti      -0.00002443       6.99742714      11.29269564        0      -0.00007415      -0.00030074       0.00166569
Ti       1.51496293       6.12278647       8.71168702        0      -0.00007000      -0.00014054       0.00295540
O       -0.00000805       6.99746102       7.77211327        1      -0.00006097      -0.00010494       0.00333098
O        1.51504009       6.12234833      12.23008024        3      -0.00020078      -0.00021190       0.09692584
C       -1.51500960       7.87213185      10.00233227        2      -0.00014564      -0.00009957       0.00245219
Ti      -1.51509694       9.62147230      11.29243411        0      -0.00003247      -0.00009798       0.00155803
Ti      -0.00001533       8.74682459       8.71168022        0      -0.00007787      -0.00012570       0.00302418
O       -1.51502507       9.62159263       7.77210870        1      -0.00006319      -0.00006535       0.00326304
O       -0.00019280       8.74695240      12.23008024        3      -0.00016666      -0.00019039       0.09314268
C        6.05995557       0.00001255      10.00241283        2      -0.00008226      -0.00015255       0.00249368
Ti       6.05994877       1.74930347      11.29250047        0      -0.00014642      -0.00005262       0.00169606
Ti       7.57499232       0.87464165       8.71171145        0      -0.00011755      -0.00007652       0.00303576
O        6.05999543       1.74943860       7.77217122        1      -0.00005667      -0.00001176       0.00339890
O        7.57486238       0.87453205      12.23008024        3      -0.00005714      -0.00024260       0.11210043
C        4.54501298       2.62405436      10.00256944        2      -0.00007089      -0.00015066       0.00247750
Ti       4.54492868       4.37341830      11.29256305        0      -0.00015010      -0.00018567       0.00173454
Ti       6.05999702       3.49873723       8.71184137        0      -0.00003576      -0.00003460       0.00317452
O        4.54504704       4.37339717       7.77219371        1      -0.00001612      -0.00010604       0.00342327
O        6.06010908       3.49889859      12.23008024        3      -0.00006592      -0.00012200       0.07510731
C        3.02997773       5.24804160      10.00245606        2      -0.00009808      -0.00014165       0.00239790
Ti       3.02982650       6.99747179      11.29241180        0      -0.00028298      -0.00041843       0.00159746
Ti       4.54496015       6.12281021       8.71174800        0      -0.00008533      -0.00010405       0.00301318
O        3.03005761       6.99743297       7.77213678        1      -0.00006792      -0.00013163       0.00330617
O        4.54475438       6.12282185      12.23008024        3      -0.00011999      -0.00005233       0.11320209
C        1.51493746       7.87211256      10.00234897        2      -0.00011827      -0.00012738       0.00241800
Ti       1.51492983       9.62143019      11.29244742        0      -0.00028655      -0.00025512       0.00153729
Ti       3.02999721       8.74685609       8.71167607        0      -0.00013250      -0.00014866       0.00295641
O        1.51500454       9.62160089       7.77212221        1      -0.00009641      -0.00005712       0.00328466
O        3.03000074       8.74683771      12.23008024        3      -0.00022335      -0.00022257       0.09521176
C        9.08993096      -0.00004047      10.00238388        2      -0.00010893      -0.00017367       0.00257498
Ti       9.08989779       1.74930728      11.29247067        0      -0.00024047      -0.00015369       0.00152361
Ti      10.60499385       0.87466543       8.71173343        0      -0.00010532      -0.00008770       0.00305737
O        9.08994115       1.74940029       7.77215146        1      -0.00009749      -0.00006346       0.00332153
O       10.60481408       0.87449026      12.23008024        3      -0.00011170      -0.00031288       0.09853364
C        7.57495668       2.62406855      10.00259299        2      -0.00000791      -0.00015022       0.00255707
Ti       7.57506679       4.37346804      11.29264326        0      -0.00010819      -0.00012739       0.00174166
Ti       9.09001360       3.49873980       8.71174157        0      -0.00006687      -0.00005759       0.00307645
O        7.57494392       4.37339761       7.77219395        1      -0.00003956      -0.00007559       0.00344265
O        9.09020220       3.49842166      12.23008024        3      -0.00008495      -0.00023818       0.11338735
C        6.06000103       5.24808207      10.00262619        2      -0.00004710      -0.00002560       0.00253527
Ti       6.05995573       6.99738258      11.29248197        0      -0.00020923      -0.00031918       0.00155169
Ti       7.57501817       6.12281153       8.71174872        0      -0.00004573      -0.00007961       0.00309933
O        6.05999201       6.99739898       7.77216498        1      -0.00005184      -0.00012987       0.00332203
O        7.57511133       6.12313571      12.23008024        3      -0.00012435      -0.00005008       0.11284497
C        4.54495518       7.87209775      10.00241496        2      -0.00011665      -0.00008489       0.00252280
Ti       4.54495732       9.62146474      11.29268967        0      -0.00036401      -0.00035282       0.00140411
Ti       6.05998761       8.74685455       8.71173120        0      -0.00008685      -0.00011918       0.00305522
O        4.54500199       9.62152427       7.77215471        1      -0.00010142      -0.00012065       0.00323065
O        6.05988395       8.74670015      12.23008024        3      -0.00019115      -0.00007780       0.10148528
C        0.04517195       0.06770107      17.01955392       10      -0.00067809       0.00039907      -0.03560711
C        1.25724073       0.76743123      17.01955392       10      -0.00520373      -0.00158439      -0.04493533
C       -1.16702058       2.16684799      17.01955392       10       0.00138755       0.00249003      -0.03143396
C        0.04493497       2.86654510      17.01955392       10       0.00117197      -0.00137780      -0.03249945
C       -2.37887629       4.26615420      17.01955392       10      -0.00110871       0.00100992      -0.03265203
C       -1.16693122       4.96581460      17.01955392       10       0.00064859      -0.00033516      -0.03000399
C       -3.59078701       6.36541666      17.01955392       10      -0.00264479       0.00254660      -0.03602059
C       -2.37888145       7.06510179      17.01955392       10      -0.00028068      -0.00181966      -0.02921087
C       -4.80304948       8.46467992      17.01955392       10       0.00260483       0.00126766      -0.03118621
C       -3.59109178       9.16438145      17.01955392       10      -0.00000204      -0.00006340      -0.03419699
C        2.46912266       0.06761501      17.01955392       10       0.00042777      -0.00007014      -0.03578919
C        3.68114579       0.76734828      17.01955392       10      -0.00407207      -0.00004206      -0.03502006
C        1.25690636       2.16684854      17.01955392       10       0.00354610       0.00172884      -0.03328573
C        2.46894311       2.86659934      17.01955392       10      -0.00150629       0.00046194      -0.03897484
C        0.04508231       4.26608548      17.01955392       10      -0.00097034       0.00023338      -0.03817252
C        1.25715886       4.96575332      17.01955392       10      -0.00178423       0.00245336      -0.03266876
C       -1.16681259       6.36532069      17.01955392       10      -0.00187466       0.00171264      -0.04217292
C        0.04523277       7.06507011      17.01955392       10      -0.00019417       0.00090900      -0.03300854
C       -2.37903806       8.46457272      17.01955392       10       0.00200487       0.00124069      -0.03759310
C       -1.16702324       9.16432421      17.01955392       10       0.00136794       0.00268473      -0.03288763
C        4.89312283       0.06753360      17.01955392       10      -0.00140502      -0.00098261      -0.03347228
C        6.10510384       0.76743674      17.01955392       10       0.00045166      -0.00062206      -0.02787172
C        3.68083601       2.16679437      17.01955392       10       0.00281945       0.00039263      -0.02621799
C        4.89287058       2.86662755      17.01955392       10       0.00269351       0.00064979      -0.04660810
C        2.46901037       4.26613550      17.01955392       10       0.00113722      -0.00233316      -0.03117122
C        3.68107855       4.96588353      17.01955392       10      -0.00077342       0.00282433      -0.02968269
C        1.25728014       6.36529011      17.01955392       10      -0.00233879      -0.00021493      -0.04625848
C        2.46924383       7.06513318      17.01955392       10      -0.00253534       0.00011831      -0.02917097
C        0.04502490       8.46460920      17.01955392       10      -0.00014800       0.00105849      -0.04664521
C        1.25698378       9.16444549      17.01955392       10       0.00167883       0.00146593      -0.03020188
C        7.31718960       0.06766270      17.01955392       10      -0.00106853      -0.00221307      -0.03758699
C        8.52919652       0.76747034      17.01955392       10      -0.00173118      -0.00080368      -0.03223130
C        6.10490366       2.16688117      17.01955392       10       0.00052243      -0.00040125      -0.04127579
C        7.31691761       2.86665807      17.01955392       10       0.00222256      -0.00127023      -0.04380004
C        4.89294295       4.26616035      17.01955392       10       0.00211095      -0.00197407      -0.03903465
C        6.10501995       4.96585915      17.01955392       10       0.00131814       0.00023977      -0.04395147
C        3.68114158       6.36549007      17.01955392       10       0.00182597      -0.00000323      -0.03841702
C        4.89324141       7.06517410      17.01955392       10      -0.00325707      -0.00122912      -0.03414054
C        2.46892114       8.46464143      17.01955392       10       0.00438264       0.00048462      -0.03529053
C        3.68102173       9.16440318      17.01955392       10      -0.00016262       0.00055179      -0.03463540
C        9.74114781       0.06762638      17.01955392       10       0.00033247       0.00051441      -0.03521374
C       10.95311144       0.76742755      17.01955392       10      -0.00231340      -0.00081074      -0.04474952
C        8.52903222       2.16687402      17.01955392       10       0.00062835       0.00226850      -0.02773064
C        9.74096430       2.86668676      17.01955392       10       0.00292952      -0.00208808      -0.04094271
C        7.31703303       4.26613500      17.01955392       10      -0.00035380       0.00081140      -0.03908824
C        8.52901630       4.96587637      17.01955392       10       0.00141297      -0.00054450      -0.03109546
C        6.10518312       6.36542838      17.01955392       10      -0.00089400       0.00185561      -0.02831635
C        7.31716554       7.06517626      17.01955392       10      -0.00106156      -0.00202531      -0.03914021
C        4.89290454       8.46467187      17.01955392       10       0.00551649       0.00204400      -0.03247005
C        6.10495450       9.16437493      17.01955392       10       0.00098470       0.00005618      -0.04188080
