132
Lattice="12.12 0.0 0.0 -6.06 10.496227893867395 0.0 0.0 0.0 40.0" Properties=species:S:1:pos:R:3:tags:I:1:forces:R:3 energy=-1209.9270832016484 stress="0.002768521318781443 7.36315505027529e-06 -4.981243557965499e-06 7.36315505027529e-06 0.0027736214697769313 -3.0446028958547063e-06 -4.981243557965499e-06 -3.0446028958547063e-06 0.0026741475462532874" pbc="T T F"
C       -0.12834359       0.09676861      10.00347309        2      -0.00020571       0.00049014      -0.00179080
Ti      -0.13801685       1.85062480      11.32992992        0      -0.00099247      -0.00140398       0.00124697
Ti       1.38598002       0.97495261       8.70808137        0      -0.00250026      -0.00039895      -0.00182254
O       -0.12918892       1.84912853       7.78458521        1      -0.00275163       0.00122535       0.00237489
O        1.38590892       0.97346369      12.23159545        3       0.00083602      -0.00099801       0.02419968
C       -1.64189034       2.72195433      10.01361582        2      -0.00364607       0.00027951       0.00372032
Ti      -1.63824641       4.46589441      11.30525737        0      -0.00051015      -0.00028607      -0.00177882
Ti      -0.12748004       3.59727418       8.70846634        0       0.00008505       0.00019932      -0.00236352
O       -1.64372583       4.47125360       7.78144956        1      -0.00223253      -0.00081538       0.00257417
O       -0.12596695       3.60495575      12.23159545        3      -0.00207327      -0.00044876      -0.08597464
C       -3.16050395       5.35070807       9.99844447        2      -0.00019778      -0.00009877      -0.00361869
Ti      -3.16067139       7.09198691      11.32176666        0      -0.00097540      -0.00134325       0.00262676
Ti      -1.64516496       6.22430147       8.70419416        0       0.00051238       0.00396056      -0.00277170
O       -3.15929590       7.09854116       7.77834418        1      -0.00044165       0.00058047       0.00316246
O       -1.64514626       6.21744167      12.23159545        3      -0.00227875      -0.00066347       0.02839649
C       -4.67380917       7.97138073      10.00066899        2      -0.00064741      -0.00280305      -0.00147402
Ti      -4.67614639       9.72113617      11.31959295        0       0.00084538      -0.00001132       0.00051460
Ti      -3.15910573       8.84722141       8.70396573        0       0.00117094       0.00083612       0.00224818
O       -4.67437708       9.72258035       7.78114814        1       0.00154683      -0.00055599      -0.00034362
O       -3.15990879       8.84525107      12.23159545        3       0.00088136      -0.00098006      -0.01928242
C        2.90102470       0.09951208      10.00301390        2       0.00118898      -0.00128964      -0.00347366
Ti       2.89851009       1.84830862      11.32533200        0       0.00067423       0.00008363       0.00019918
Ti       4.41541104       0.97517818       8.70491897        0      -0.00120950      -0.00301012      -0.00105368
O        2.89974434       1.84962321       7.78221303        1      -0.00092159      -0.00190753      -0.00071131
O        4.41886651       0.97673649      12.23159545        3       0.00065006      -0.00085848      -0.00732078
C        1.38678664       2.72327359      10.00407809        2      -0.00182865      -0.00063892      -0.00058921
Ti       1.38935023       4.47205915      11.31600109        0      -0.00127047       0.00136592       0.00378947
Ti       2.89985581       3.59894746       8.70575118        0      -0.00005560      -0.00243914       0.00003998
O        1.38414488       4.47360167       7.78193069        1      -0.00197451      -0.00250050       0.00259542
O        2.90479057       3.59781289      12.23159545        3      -0.00099878       0.00085917       0.01289854
C       -0.12920948       5.34989041      10.00188023        2      -0.00064627      -0.00274150       0.00113457
Ti      -0.13285373       7.09588949      11.32481052        0      -0.00171218       0.00005871      -0.00007429
Ti       1.38380250       6.22377753       8.70577400        0       0.00171730      -0.00288171       0.00135258
O       -0.12994341       7.09827694       7.78035385        1       0.00271271      -0.00198765       0.00246761
O        1.38519475       6.22266520      12.23159545        3      -0.00173652      -0.00008021      -0.00124815
C       -1.64536249       7.97234087      10.00129607        2      -0.00040577      -0.00126211       0.00031406
Ti      -1.64474810       9.72212122      11.31853075        0      -0.00361495       0.00178079       0.00250496
Ti      -0.13081932       8.84780719       8.70609363        0       0.00057364      -0.00270868      -0.00033422
O       -1.64481696       9.72227167       7.77919352        1       0.00061390      -0.00229384       0.00318544
O       -0.12776402       8.84806078      12.23159545        3      -0.00393380       0.00070928       0.00961210
C        5.93054073       0.10037142      10.00091317        2       0.00028737      -0.00041551      -0.00171434
Ti       5.93521561       1.85241998      11.31938022        0      -0.00040502      -0.00122675       0.00148949
Ti       7.44217258       0.97473679       8.70311831        0      -0.00189421      -0.00371197      -0.00562225
O        5.92907423       1.84932503       7.77802666        1      -0.00008207      -0.00142658       0.00185682
O        7.44952633       0.97840390      12.23159545        3      -0.00345632      -0.00087581      -0.00269406
C        4.41459901       2.72447179      10.00011138        2       0.00180220       0.00005506      -0.00316554
Ti       4.41909479       4.47038808      11.31984111        0       0.00075625       0.00071562       0.00065372
Ti       5.92742374       3.59880169       8.70507232        0      -0.00199973      -0.00394424      -0.00104277
O        4.41309529       4.47322148       7.77692794        1       0.00147336      -0.00366721      -0.00036498
O        5.93433965       3.59886854      12.23159545        3      -0.00170814      -0.00229175       0.00518541
C        2.90219939       5.34950674      10.00175852        2      -0.00113932      -0.00229855      -0.00193372
Ti       2.90053350       7.09721036      11.32072844        0      -0.00192876       0.00027238       0.00034508
Ti       4.41374664       6.22405962       8.69764063        0       0.00198875      -0.00289946       0.00135331
O        2.89696932       7.09916379       7.77827431        1       0.00057584      -0.00130516      -0.00145235
O        4.41760652       6.22042251      12.23159545        3       0.00170068      -0.00050130      -0.01195094
C        1.38493601       7.97158386      10.00298873        2       0.00033812      -0.00007394      -0.00391237
Ti       1.38699765       9.72219121      11.32353597        0      -0.00001553      -0.00042022       0.00090878
Ti       2.89942870       8.84811205       8.70463925        0       0.00227312      -0.00217622      -0.00168026
O        1.38460519       9.72127103       7.77998563        1       0.00177032      -0.00216040       0.00208985
O        2.90030777       8.84662499      12.23159545        3      -0.00018545      -0.00002361       0.00872294
C        8.95992900       0.09695035      10.00127569        2       0.00096900       0.00216699       0.00312535
Ti       8.97634483       1.84068967      11.31654283        0      -0.00148672       0.00143166      -0.00341181
Ti      10.47796313       0.97260295       8.71076388        0      -0.00084603      -0.00187107      -0.00462013
O        8.96250330       1.84956197       7.78406308        1       0.00035105       0.00172019       0.00107279
O       10.47389243       0.95935098      12.23159545        3      -0.00176214      -0.00012468      -0.22156978
C        7.44390658       2.72284015       9.99843874        2       0.00026227      -0.00075292      -0.00109654
Ti       7.44233536       4.47375896      11.29657482        0      -0.00526484       0.00235133       0.00137666
Ti       8.95762261       3.60072863       8.69094190        0      -0.00241248       0.00137539      -0.00364674
O        7.44591211       4.47300892       7.77700981        1      -0.00010042       0.00007191       0.00272611
O        8.94680445       3.60235952      12.23159545        3       0.00253897       0.00074239       0.05326071
C        5.92369072       5.35294942       9.99546550        2      -0.00299003       0.00013727      -0.00497574
Ti       5.93406887       7.09587868      11.31852863        0       0.00056618      -0.00112484      -0.00015526
Ti       7.44423082       6.22521498       8.70277154        0       0.00159646       0.00362917       0.00072769
O        5.92977847       7.09914525       7.77594501        1       0.00086767      -0.00050889      -0.00086270
O        7.44451930       6.21738646      12.23159545        3       0.00038213       0.00031410       0.00941963
C        4.41605012       7.96791946       9.99950107        2      -0.00011619       0.00044564      -0.00246992
Ti       4.41918222       9.71543836      11.31188106        0      -0.00177909      -0.00015385       0.00324250
Ti       5.93070228       8.84749095       8.70350454        0       0.00070777      -0.00014357      -0.00112343
O        4.41533186       9.72202063       7.78070401        1      -0.00069845       0.00067003       0.00268597
O        5.93193730       8.84427199      12.23159545        3       0.00042037      -0.00004576       0.00734859
C        0.26619752      -0.10086340      16.14250636       10       0.00828064       0.00384121       0.00139536
C        1.47282439       0.60298316      16.15089459       10       0.00125007      -0.00017483      -0.00111781
C       -0.92319380       1.98527723      16.11813569       10       0.00330236      -0.00277314       0.72183217
C        0.26355014       2.69972482      16.12577443       10       0.00231298       0.00283437       0.07966487
C       -2.16840362       4.13929670      16.11813014       10       0.00119397       0.00158199       0.34250745
C       -0.95507457       4.80941239      16.12577187       10       0.00063283       0.00289709       0.06974983
C       -3.37962420       6.21498179      16.14250581       10       0.00253429      -0.00106421       0.00925218
C       -2.16607122       6.90585069      16.15089439       10      -0.00101810      -0.00141531       0.01998673
C       -4.58989368       8.30255078      16.14061342       10       0.00142355       0.00166768       0.01207145
C       -3.37716590       9.00184439      16.15190308       10      -0.00689728      -0.00389985      -0.00191929
C        2.68463852      -0.09704462      16.15292810       10       0.00134899       0.00193540       0.02107554
C        3.89434911       0.60388242      16.15190299       10      -0.00012185       0.00623167       0.00253765
C        1.47918106       1.99903802      16.14250657       10       0.00205126       0.00190679       0.00057899
C        2.68446227       2.70357820      16.13344644       10       0.00004096       0.00213777       0.01968280
C        0.26108353       4.10501360      16.09964655       10       0.00385215       0.00419499      -0.01721525
C        1.46863111       4.80304764      16.11131650       10       0.00444905       0.00018214       0.01133121
C       -0.95486192       6.21340340      16.14250581       10      -0.00034851       0.00162854      -0.00514411
C        0.25853156       6.90509950      16.13344654       10      -0.00030532      -0.00127827       0.04135113
C       -2.16625309       8.30561095      16.15292831       10      -0.00229841      -0.00047561       0.01764979
C       -0.95474288       9.00224521      16.15190308       10       0.00145602       0.00037697       0.01210384
C        5.10264093      -0.09680332      16.15292810       10      -0.00000061       0.00545341       0.02060687
C        6.31493716       0.60378034      16.15089459       10       0.00232778       0.00036386      -0.00850117
C        3.89349512       2.00262076      16.14061329       10       0.00020313       0.00611370       0.00898975
C        5.10276214       2.70432228      16.13344644       10       0.00307130      -0.00072133       0.00571303
C        2.68205491       4.10224636      16.11956294       10       0.00074031      -0.00114920       0.00064284
C        3.89299369       4.80359570      16.11677508       10      -0.00170428      -0.00066553       0.02309276
C        1.46823447       6.20390922      16.11956284       10      -0.00246477      -0.00194480      -0.01159884
C        2.68140859       6.90213053      16.11677497       10      -0.00650941       0.00282580       0.02128761
C        0.25616677       8.30343222      16.14061342       10       0.00427922      -0.00028802      -0.00091106
C        1.46750053       9.00065925      16.13344629       10       0.00331087       0.00045649       0.03055922
C        7.52004924      -0.09828939      16.14250636       10      -0.00027329      -0.00005291       0.01045997
C        8.73538715       0.60423338      16.12577424       10      -0.00159064      -0.00220271       0.05180658
C        6.30664879       1.99933868      16.14250657       10       0.00306054      -0.00048157       0.00029930
C        7.52228866       2.70057476      16.12577443       10       0.00009585       0.00116856       0.03820641
C        5.10484054       4.10163138      16.11956294       10      -0.00021164      -0.00134567       0.01928142
C        6.31663806       4.80276008      16.11131650       10      -0.00010523      -0.00070279      -0.02597293
C        3.89325962       6.20232749      16.11369708       10      -0.00423155       0.00242100      -0.01933399
C        5.10423899       6.90186089      16.11677497       10       0.00229710       0.00079430       0.00737376
C        2.67920646       8.30272450      16.11956267       10       0.00043534       0.00264794      -0.00009318
C        3.89224558       9.00263539      16.11131609       10       0.00145411      -0.00169149      -0.00913089
C        9.95234294      -0.09861110      16.09964650       10       0.00252330       0.00150576       0.00095719
C       11.17029423       0.60172725      16.12577424       10      -0.00303266      -0.00475820       0.04414982
C        8.71082832       1.98947014      16.11813569       10      -0.00116907      -0.00099538       0.36439233
C        9.95023998       2.70865935      15.87377643       10       0.00021646      -0.00092826      -1.78929744
C        7.52431102       4.10598447      16.09964655       10       0.00018383       0.00062548      -0.05055478
C        8.74032613       4.81109294      16.12577187       10      -0.00358732       0.00205819       0.05794107
C        6.31773572       6.20384962      16.11956284       10       0.00607172       0.00031628       0.01857759
C        7.52721704       6.90430314      16.13344654       10       0.00318876       0.00399584       0.01410731
C        5.10586693       8.30203243      16.11956267       10       0.00415019       0.00473117       0.01438349
C        6.31855781       8.99925935      16.13344629       10      -0.00463321       0.00096636       0.00521738
O       10.04674796       2.63823408      14.36683974       11      -0.00345067      -0.00124389      -0.00607955
H        9.38438681       3.19723428      13.89769852       12       0.00661090       0.00541547       0.00279542
