131
Lattice="12.12 0.0 0.0 -6.06 10.496227893867395 0.0 0.0 0.0 40.0" Properties=species:S:1:pos:R:3:tags:I:1:forces:R:3 energy=-1204.7133629735683 stress="0.002783892483642495 3.1087177616787247e-07 1.3377891768529548e-06 3.1087177616787247e-07 0.0028359134666756107 7.03180727277734e-07 1.3377891768529548e-06 7.03180727277734e-07 0.002785547692127299" pbc="T T F"
C       -0.35181044      -0.01797624       9.99098266        2       0.00351726      -0.00375531       0.00222194
Ti      -0.34527297       1.73202782      11.29857266        0      -0.00077979      -0.00394613      -0.00179354
Ti       1.17223913       0.85120347       8.71222152        0      -0.00136694      -0.00285367       0.00202954
O       -0.33271772       1.72826156       7.77190254        1      -0.00192450      -0.00430215       0.00169958
O        1.15915407       0.86238878      12.23008024        3       0.00061710      -0.00091923      -0.18939934
C       -1.85545315       2.60100440       9.99658352        2      -0.00116951      -0.00026112      -0.00069493
Ti      -1.85555179       4.34685078      11.30113142        0      -0.00101899       0.00166719       0.00308151
Ti      -0.33973481       3.47683048       8.71400422        0      -0.00016560      -0.00108595      -0.00044250
O       -1.85563386       4.36206698       7.78285840        1      -0.00029559      -0.00319238       0.00161714
O       -0.33904535       3.47323551      12.23008024        3       0.00059419      -0.00383231      -0.20052847
C       -3.37426336       5.22439571      10.01105163        2      -0.00046539      -0.00342452      -0.00158877
Ti      -3.38059851       6.96952670      11.32430041        0       0.00234725       0.00132399       0.00263227
Ti      -1.85605113       6.09942831       8.73450084        0       0.00379574      -0.00088596      -0.00031845
O       -3.36090876       6.98044389       7.79655225        1      -0.00014847       0.00021370       0.00054504
O       -1.85594659       6.06901080      12.23008024        3       0.00184194      -0.00317123      -0.22927506
C       -4.89583654       7.84290231      10.00215224        2       0.00271500      -0.00203561       0.00008198
Ti      -4.91270714       9.61070185      11.28899062        0       0.00279656      -0.00333350      -0.00168730
Ti      -3.37115749       8.72553520       8.75318927        0       0.00132045      -0.00061453      -0.00008909
O       -4.87375559       9.59547551       7.78494679        1      -0.00055048      -0.00174308       0.00214509
O       -3.51302099       8.71261091      12.23008024        3      -0.00293465       0.00311251      -0.79598626
C        2.69459582      -0.03318015      10.03640898        2       0.00157235       0.00086780      -0.00023189
Ti       2.68527970       1.71870892      11.29875160        0      -0.00112846      -0.00195719      -0.00293150
Ti       4.20432947       0.84118604       8.74200924        0      -0.00061697       0.00145109       0.00222420
O        2.69492237       1.71548916       7.78540018        1      -0.00001993      -0.00032176       0.00033787
O        4.20439955       0.86203697      12.23008024        3      -0.00066532      -0.00130152       0.07855972
C        1.17430010       2.60040478      10.00167349        2      -0.00096426      -0.00148713      -0.00027934
Ti       1.17920447       4.34609015      11.30041914        0      -0.00044691      -0.00150140      -0.00014579
Ti       2.68964380       3.47171074       8.71311810        0      -0.00272181      -0.00318457       0.00105668
O        1.17564109       4.35102121       7.77656222        1      -0.00071359      -0.00253585       0.00042488
O        2.69118087       3.47433428      12.23008024        3       0.00075997      -0.00023834      -0.19587240
C       -0.33721247       5.22458456      10.01112954        2       0.00204305      -0.00389209       0.00050030
Ti      -0.33052031       6.96972505      11.32425142        0      -0.00161525       0.00036201       0.00347327
Ti       1.17293003       6.10145870       8.71778349        0      -0.00010436      -0.00281458      -0.00242554
O       -0.35102783       6.98081173       7.79661391        1       0.00188896      -0.00184738       0.00210772
O        1.19306979       6.08901984      12.23008024        3       0.00004069       0.00020067      -0.15100066
C       -1.85574507       7.85620974      10.06902702        2       0.00009047      -0.00111766      -0.00303055
Ti      -1.85563597       9.56560477      11.42903204        0       0.00186111      -0.00402039       0.00142408
Ti      -0.34112292       8.72568955       8.75340252        0       0.00278357      -0.00245345      -0.00093902
O       -1.85598742       9.58969162       7.80897720        1       0.00098830      -0.00188878      -0.00028213
O       -0.19693187       8.71291910      12.23008024        3      -0.00032738       0.00011684      -0.80495914
C        5.71384675      -0.03303998      10.03662509        2      -0.00021724       0.00004051      -0.00276708
Ti       5.72360900       1.71881324      11.29871567        0       0.00096435      -0.00378804       0.00023195
Ti       7.23641780       0.85110088       8.71265157        0       0.00043673      -0.00219399      -0.00079270
O        5.71409490       1.71538683       7.78552638        1      -0.00227361      -0.00098380       0.00001450
O        7.24959792       0.86259150      12.23008024        3       0.00115867      -0.00017286      -0.18943645
C        4.20434597       2.59539785      10.00840402        2       0.00077955      -0.00025081      -0.00211270
Ti       4.20451985       4.34530119      11.30106979        0       0.00002399      -0.00161663      -0.00115469
Ti       5.71933741       3.47132280       8.71330404        0      -0.00100266      -0.00075197       0.00016215
O        4.20451153       4.34390359       7.77404041        1      -0.00038969      -0.00122159       0.00111790
O        5.71781580       3.47452923      12.23008024        3      -0.00197514      -0.00170622      -0.19464119
C        2.69150714       5.22103351      10.00157369        2       0.00006210      -0.00174576       0.00181365
Ti       2.69746554       6.97483535      11.29905233        0      -0.00123191      -0.00233352       0.00000999
Ti       4.20413699       6.09462418       8.71013762        0      -0.00020726       0.00030834       0.00233260
O        2.68783328       6.97038059       7.77145222        1       0.00042391      -0.00161602      -0.00060675
O        4.20455873       6.09479900      12.23008024        3      -0.00107139      -0.00209017      -0.19212729
C        1.18398551       7.84296681      10.00237775        2       0.00156736      -0.00230229      -0.00049223
Ti       1.20172689       9.61095060      11.28871914        0      -0.00324749      -0.00298182       0.00246148
Ti       2.68947443       8.71997045       8.70650614        0      -0.00066005      -0.00235847      -0.00103664
O        1.16202486       9.59556358       7.78543868        1       0.00060484      -0.00212264      -0.00019767
O        2.71411976       8.71880008      12.23008024        3       0.00046305      -0.00250481      -0.22698888
C        8.76053048      -0.01814486       9.99140059        2      -0.00121960      -0.00064072      -0.00246808
Ti       8.75427089       1.73192306      11.29807348        0      -0.00028772      -0.00209085       0.00375992
Ti      10.26433028       0.85055015       8.70526467        0       0.00215479      -0.00327891       0.00014478
O        8.74149289       1.72777957       7.77221134        1       0.00091652      -0.00095143      -0.00035187
O       10.26466888       0.85281524      12.23008024        3      -0.00117699      -0.00002604      -0.26698095
C        7.23469910       2.60025656      10.00178423        2      -0.00075472      -0.00037617      -0.00149304
Ti       7.22984118       4.34587741      11.30006878        0       0.00071324      -0.00120276       0.00249259
Ti       8.74862877       3.47676611       8.71396021        0       0.00106082      -0.00343613      -0.00054500
O        7.23321750       4.35033726       7.77634686        1      -0.00018978       0.00102279       0.00030293
O        8.74787930       3.47296064      12.23008024        3       0.00024084      -0.00152503      -0.20236376
C        5.71744524       5.22099577      10.00159539        2      -0.00176967      -0.00264952      -0.00031867
Ti       5.71187886       6.97464215      11.29904752        0      -0.00193245      -0.00050239      -0.00073294
Ti       7.23525663       6.10088980       8.71727051        0      -0.00021849      -0.00029114       0.00182913
O        5.72037588       6.97010317       7.77110086        1       0.00156973      -0.00072543       0.00010736
O        7.21588000       6.08909395      12.23008024        3      -0.00145436      -0.00081555      -0.15082469
C        4.20427547       7.84535959       9.99531664        2       0.00100319      -0.00132948       0.00040062
Ti       4.20447000       9.60108581      11.29926998        0       0.00104295       0.00057378      -0.00061473
Ti       5.71863875       8.71958062       8.70622019        0       0.00154804       0.00291974       0.00100341
O        4.20390652       9.59540325       7.76714964        1       0.00231844      -0.00034038       0.00004422
O        5.69497923       8.71873997      12.23008024        3       0.00011413      -0.00195493      -0.22687244
C        0.57563209       0.10970181      15.68402108       10       0.00279371       0.00083247       0.09646897
C        1.78633339       0.80940960      15.66872903       10       0.00113392       0.00377352       0.09329312
C       -0.63392358       2.20767284      15.68934178       10      -0.00358952      -0.00058868       0.07623204
C        0.57804716       2.90757957      15.67163135       10      -0.00270590      -0.00111279       0.07615548
C       -1.84606762       4.30485519      15.68402108       10       0.00073353       0.00280390       0.10224640
C       -0.63490399       5.00423705      15.66872903       10       0.00226080       0.00013333       0.11847886
C       -3.05204016       6.40951346      15.62091033       10      -0.00326077       0.00245946       0.07707530
C       -1.84620127       7.09078044      15.57908811       10       0.00057124      -0.00087938      -0.29492181
C       -4.26545538       8.50946217      15.62091033       10      -0.00195982       0.00396584       0.07660597
C       -3.07379646       9.21524127      15.57908811       10       0.00036694       0.00115346      -0.30281210
C        3.00076813       0.10333178      15.62091033       10      -0.00031672       0.00072283       0.10188584
C        4.21383607       0.80756835      15.58883165       10      -0.00097645       0.00048053       0.26538094
C        1.78964464       2.20712348      15.65768606       10      -0.00180570       0.00344806       0.06452589
C        3.00183816       2.90618389      15.63577165       10      -0.00049350       0.00181829       0.04330620
C        0.57693068       4.30751636      15.65768606       10      -0.00089184      -0.00193090       0.06998036
C        1.78890549       5.00698686      15.63577165       10      -0.00041278      -0.00011108       0.04690881
C       -0.64025005       6.40968771      15.62091033       10       0.00139489      -0.00070615       0.07794937
C        0.57714354       7.10695016      15.58883165       10      -0.00018331       0.00184868       0.24886770
C       -1.84672738       8.50885448      15.12628245       10       0.00425549       0.00286292       1.15360219
C       -0.61909008       9.21466619      15.57908811       10       0.00016587       0.00570886      -0.32050290
C        5.42658163       0.10277098      15.62091033       10       0.00184243       0.00622204       0.10301468
C        6.64106818       0.80899240      15.66872903       10       0.00226154       0.00462502       0.09303489
C        4.21408456       2.20378937      15.62116536       10      -0.00128542       0.00006939       0.01357635
C        5.42641083       2.90601807      15.63577165       10      -0.00310493       0.00340989       0.04300133
C        3.00119396       4.30618377      15.63309004       10       0.00006850       0.00203404       0.08108432
C        4.21406238       5.00641013      15.62808927       10      -0.00146620       0.00423630       0.04969671
C        1.78627497       6.40791162      15.62116536       10       0.00066877       0.00164719      -0.01237069
C        3.00106347       7.10636291      15.63577165       10       0.00163591       0.00337110       0.05617798
C        0.57293650       8.50939248      15.62091033       10      -0.00218531       0.00297852       0.07604322
C        1.79258397       9.20736235      15.66872903       10      -0.00084320      -0.00010040       0.10634318
C        7.85181533       0.10950195      15.68402108       10       0.00112584       0.00066820       0.09672935
C        9.06302806       0.80840910      15.69095960       10       0.00146579       0.00391905       0.07450077
C        6.63845397       2.20675302      15.65768606       10      -0.00267873       0.00371759       0.06453484
C        7.85011262       2.90723625      15.67163135       10      -0.00199050       0.00196223       0.07534800
C        5.42688621       4.30603304      15.63309004       10      -0.00228760       0.00408239       0.08016400
C        6.63905257       5.00687661      15.63577165       10       0.00167019       0.00037164       0.04715757
C        4.21388337       6.40651454      15.63309004       10       0.00130975       0.00285795       0.09363675
C        5.42663092       7.10646537      15.63577165       10       0.00176274       0.00084464       0.05637127
C        3.00131420       8.50560100      15.65768606       10      -0.00000258       0.00369727       0.06128086
C        4.21382660       9.20476831      15.67163135       10      -0.00019714       0.00561149       0.10087485
C       10.27374386       0.10800504      15.68934178       10       0.00212742       0.00461683       0.05688934
C       11.48446731       0.80859565      15.69095960       10       0.00371227       0.00138253       0.07401836
C        9.06210605       2.20745180      15.68934178       10      -0.00220416       0.00195548       0.07611896
C       10.27405484       2.90586420      15.69095960       10      -0.00160691       0.00301820       0.09395038
C        7.85099285       4.30722700      15.65768606       10      -0.00107071      -0.00027631       0.06964364
C        9.06268732       5.00407579      15.66872903       10      -0.00117840       0.00115425       0.11859448
C        6.64144581       6.40788800      15.62116536       10       0.00174304       0.00135038      -0.01168247
C        7.85060253       7.10692942      15.58883165       10      -0.00052365       0.00411491       0.24824377
C        5.42636845       8.50572597      15.65768606       10      -0.00184266       0.00092767       0.06207143
C        6.63504006       9.20748284      15.66872903       10      -0.00274562       0.00223770       0.10720390
O       -1.85223290       8.49851038      13.79018925       11      -0.00057741       0.00722570      -0.00054853
