132
Lattice="12.12 0.0 0.0 -6.06 10.496227893867395 0.0 0.0 0.0 40.0" Properties=species:S:1:pos:R:3:tags:I:1:forces:R:3 energy=-1209.9413101348555 stress="0.002803030319163408 1.2908976561626775e-05 -9.462795612568022e-06 1.2908976561626775e-05 0.002790993586804363 -5.686334819744891e-06 -9.462795612568022e-06 -5.686334819744891e-06 0.0027625358248130486" pbc="T T F"
C       -0.13472632       0.16088521      10.00209385        2       0.00179600      -0.00157885       0.00413670
Ti      -0.14382544       1.90714235      11.31931267        0       0.00036231      -0.00388259      -0.00269258
Ti       1.37649798       1.03816319       8.71691502        0       0.00156478       0.00050869      -0.00523873
O       -0.14195289       1.91503110       7.78028513        1       0.00352836      -0.00097136      -0.00068166
O        1.38070426       1.03497775      12.23008024        3       0.00232753      -0.00280959      -0.16196754
C       -1.65591593       2.78423675      10.02076228        2       0.00096130      -0.00334373      -0.00058820
Ti      -1.64501224       4.55224201      11.26903800        0      -0.00256215      -0.00075125       0.00092542
Ti      -0.13683114       3.66095432       8.71866126        0       0.00144928      -0.00048705       0.00009891
O       -1.65210287       4.53238645       7.77639990        1      -0.00161276       0.00243203       0.00032252
O       -0.12846453       3.67325636      12.23008024        3      -0.00360509      -0.00238804      -0.34879442
C       -3.16805454       5.41648591       9.99494099        2       0.00014454      -0.00077157       0.00364488
Ti      -3.16946660       7.16194919      11.30125922        0      -0.00250925       0.00080727      -0.00216543
Ti      -1.65432409       6.28864679       8.70572918        0       0.00030710      -0.00866593       0.00129743
O       -3.16662184       7.16324951       7.76986397        1      -0.00139466      -0.00586131       0.00170881
O       -1.65582461       6.28998860      12.23008024        3       0.00226593       0.00170700      -0.20841884
C       -4.68253074       8.03638951       9.99789211        2       0.00104280      -0.00018003       0.00095762
Ti      -4.67977047       9.78155940      11.29633204        0      -0.00497010       0.00129814       0.00061358
Ti      -3.16714881       8.91257480       8.71114556        0      -0.00114087       0.00309434       0.00087259
O       -4.68274182       9.78755502       7.77335730        1      -0.00061035      -0.00123320       0.00422684
O       -3.16584529       8.91039616      12.23008024        3      -0.00421037      -0.00093673      -0.19819589
C        2.89263866       0.16414979      10.00249889        2      -0.00314029      -0.00037583       0.00215475
Ti       2.89094886       1.91268566      11.29942104        0      -0.00172887      -0.00050480       0.00092757
Ti       4.40675059       1.03893097       8.71434744        0      -0.00779664      -0.00023584       0.00148703
O        2.89074194       1.91268635       7.77691614        1      -0.00042224       0.00033767       0.00412912
O        4.40731513       1.03911178      12.23008024        3      -0.00263887       0.00216060      -0.20590669
C        1.37502111       2.78663887      10.00800337        2       0.00194866      -0.00156257       0.00260801
Ti       1.37212615       4.53348675      11.30930322        0       0.00208143      -0.00084468       0.00114980
Ti       2.89176205       3.66284257       8.71528429        0      -0.00091482      -0.00472187      -0.00145455
O        1.37411190       4.53503391       7.77897026        1      -0.00630184       0.00319664       0.00003959
O        2.89241394       3.66324748      12.23008024        3      -0.00015251      -0.00689834      -0.16153671
C       -0.14078916       5.41273095      10.00409902        2      -0.00097630      -0.00141481       0.00155448
Ti      -0.14114747       7.16286046      11.30286232        0       0.00225720      -0.00049092      -0.00046651
Ti       1.37758978       6.28624069       8.71533114        0      -0.00243826       0.00056136      -0.00089210
O       -0.13694983       7.16156464       7.77479892        1      -0.00118194       0.00073774      -0.00235367
O        1.37518205       6.28804224      12.23008024        3      -0.00171979       0.00119954      -0.16723430
C       -1.65243912       8.03719683      10.00099500        2      -0.00134888      -0.00069323      -0.00126035
Ti      -1.65371356       9.78735873      11.29805081        0       0.00134458      -0.00226314       0.00014135
Ti      -0.13644657       8.91076209       8.71467614        0      -0.00789267       0.00245256       0.00128190
O       -1.65122783       9.78704646       7.77493236        1       0.00081513      -0.00217825       0.00288253
O       -0.13918881       8.91046725      12.23008024        3       0.00408365      -0.00286245      -0.18439161
C        5.92246025       0.16384545      10.00473082        2      -0.00114626      -0.00079387      -0.00099178
Ti       5.92369367       1.91583759      11.30847565        0      -0.00330533      -0.00177542      -0.00003020
Ti       7.43563232       1.03949726       8.71226215        0       0.00168678       0.00120829      -0.00140657
O        5.92469437       1.91221204       7.77601505        1      -0.00431556       0.00324243      -0.00243093
O        7.43619322       1.04011368      12.23008024        3      -0.00230508      -0.00472036      -0.15759295
C        4.40617443       2.78852679      10.00266319        2       0.00051566      -0.00199882       0.00210821
Ti       4.40126794       4.53780524      11.30071169        0      -0.00202462      -0.00478913      -0.00039998
Ti       5.92096007       3.66201307       8.71121409        0      -0.00063159       0.00232791       0.00127183
O        4.40536611       4.53389142       7.77322223        1       0.00154012      -0.00078335       0.00008699
O        5.91527462       3.66454368      12.23008024        3      -0.00043084      -0.00326762      -0.23055541
C        2.89109442       5.41215650      10.00055322        2       0.00185766       0.00058505      -0.00155372
Ti       2.88999161       7.15735988      11.29906092        0      -0.00071923      -0.00036925       0.00316608
Ti       4.40668888       6.28655041       8.70804897        0      -0.00237898       0.00192799       0.00045666
O        2.88957064       7.16313799       7.77330431        1      -0.00809022      -0.00255212      -0.00255685
O        4.40514701       6.28610245      12.23008024        3      -0.00288077      -0.00215495      -0.22907057
C        1.37700292       8.03528813      10.00245737        2      -0.00348235       0.00214013       0.00379527
Ti       1.37488135       9.78497716      11.30971144        0      -0.00014281      -0.00771747       0.00024172
Ti       2.89259947       8.90878003       8.71566771        0      -0.00021528       0.00071844       0.00477408
O        1.37950432       9.78728858       7.77820808        1      -0.00034780      -0.00438739      -0.00354334
O        2.88795240       8.90120125      12.23008024        3      -0.00470809      -0.00094459      -0.19885812
C        8.95179901       0.16750767      10.01173829        2      -0.00192390       0.00073908      -0.00094662
Ti       8.95085087       1.88455071      11.26711510        0      -0.00049877       0.00259386      -0.00613746
Ti      10.46950037       1.03796706       8.71902707        0       0.00231576      -0.00403819      -0.00533158
O        8.95501315       1.91341932       7.77589312        1      -0.00288839      -0.00469437       0.00004295
O       10.49236267       0.97124893      12.23008024        3      -0.00173257       0.00096643      -0.92872066
C        7.44094712       2.78423658      10.00594083        2      -0.00320896      -0.00414740       0.00178907
Ti       7.41417440       4.55299693      11.27781472        0      -0.00212644       0.00129138       0.00261894
Ti       8.95087687       3.66208555       8.71960512        0      -0.00218178       0.00099529      -0.00714264
O        7.43885224       4.53376470       7.77431926        1       0.00015103      -0.00131000       0.00131869
O        8.90121499       3.72551349      12.23008024        3      -0.00631763       0.00006794      -0.47688712
C        5.91667587       5.41466175       9.99533737        2      -0.00463783       0.00166042       0.00258402
Ti       5.91994463       7.16085953      11.29644323        0       0.00014749      -0.00112873       0.00087411
Ti       7.43858896       6.28854942       8.70623440        0      -0.00331652      -0.00632113       0.00052318
O        5.92109934       7.16226276       7.76989364        1       0.00248308       0.00075125      -0.00104251
O        7.43387173       6.29491551      12.23008024        3      -0.00145350      -0.00118098      -0.25123320
C        4.40624911       8.02921635       9.99678149        2      -0.00077780      -0.00370515      -0.00174768
Ti       4.41195177       9.77621470      11.30621433        0      -0.00182962      -0.00293576       0.00358970
Ti       5.92219936       8.91046852       8.71049693        0       0.00406399       0.00068900       0.00136470
O        4.40469529       9.78846743       7.77814287        1      -0.00392960      -0.00186882      -0.00254795
O        5.92912566       8.90068991      12.23008024        3      -0.00053406       0.00173849      -0.19416898
C        0.27984931      -0.20127070      15.71467536       10      -0.00019628      -0.00459451       0.04969172
C        1.48850763       0.50048487      15.72306359       10       0.00158900       0.00453184       0.07886765
C       -0.91116924       1.88703860      15.69030469       10      -0.00328172       0.00079500       0.89303865
C        0.27691187       2.59849212      15.69794343       10      -0.00056855      -0.00381871       0.10889188
C       -2.15233070       4.03424146      15.69029914       10       0.00125531       0.00399870       0.73695821
C       -0.94060569       4.70622394      15.69794087       10       0.00380861      -0.00078296       0.11797323
C       -3.36373671       6.10985644      15.71467481       10      -0.00253336       0.00317040       0.06677500
C       -2.15077763       6.80509404      15.72306339       10      -0.00009002       0.00218758       0.07398379
C       -4.57524034       8.20100441      15.71278242       10       0.00246158      -0.00078201       0.10023203
C       -3.36339029       8.90000221      15.72407208       10       0.00614905       0.00526982       0.05789262
C        2.69879253      -0.19800245      15.72509710       10      -0.00220307      -0.00281850       0.07422932
C        3.90883417       0.50242961      15.72407199       10       0.00305039      -0.00267407       0.04222454
C        1.49285558       1.89830223      15.71467557       10       0.00372297       0.00074420       0.02996844
C        2.69874944       2.60155578      15.70561544       10       0.00524225       0.00477697       0.06156714
C        0.27241188       4.00125502      15.67181555       10       0.00017990      -0.00237971       0.21024811
C        1.48313365       4.69995913      15.68348550       10      -0.00159364       0.00448241       0.01739562
C       -0.93812078       6.10931740      15.71467481       10      -0.00317262       0.00203660       0.04345239
C        0.27416931       6.80222194      15.70561554       10      -0.00060636       0.00345215       0.06397012
C       -2.15118437       8.20277119      15.72509731       10      -0.00097238       0.00324920       0.05783323
C       -0.93913076       8.89998769      15.72407208       10       0.00271990       0.00299893       0.04777365
C        5.11917803      -0.19786488      15.72509710       10       0.00181567      -0.00430676       0.05918902
C        6.32972078       0.50109253      15.72306359       10       0.00206873       0.00333280       0.07567908
C        3.90895966       1.90144365      15.71278229       10       0.00337040      -0.00257978       0.07480453
C        5.11910180       2.60179862      15.70561544       10       0.00142403       0.00505688       0.05345140
C        2.69672732       4.00066943      15.69173194       10       0.00012304       0.00592636       0.04094403
C        3.90822748       4.70122534      15.68894408       10       0.00263105      -0.00037514       0.08546326
C        1.48481594       6.10069247      15.69173184       10      -0.00040448       0.00635037       0.05617873
C        2.69646887       6.80089967      15.68894397       10       0.00475549      -0.00025008       0.08985381
C        0.27297423       8.20090521      15.71278242       10      -0.00370327       0.00151195       0.06533641
C        1.48439808       8.89923588      15.70561529       10      -0.00238059       0.00314818       0.04735939
C        7.53902815      -0.20019870      15.71467536       10       0.00254242       0.00034991       0.06126892
C        8.75347361       0.50369635      15.69794324       10       0.00647973      -0.00029494       0.11367267
C        6.32584207       1.89918693      15.71467557       10      -0.00100208       0.00277589       0.07548623
C        7.54177356       2.60041219      15.69794343       10       0.00291378      -0.00134532       0.11075986
C        5.12037900       4.00112436      15.69173194       10       0.00474678       0.00460901       0.04036583
C        6.33359786       4.70115344      15.68348550       10       0.00561356       0.00218985       0.02066173
C        3.90858449       6.10114730      15.68586608       10       0.00573042      -0.00042588       0.03444494
C        5.12052132       6.80147287      15.68894397       10       0.00157938       0.00180260       0.07609805
C        2.69668277       8.20069651      15.69173167       10       0.00021454       0.00182115       0.03963290
C        3.90877394       8.90212525      15.68348509       10       0.00066705       0.00530033       0.00462950
C        9.96891743      -0.19614191      15.67181550       10       0.00273089      -0.00208553       0.22634257
C       11.18579717       0.50207606      15.69794324       10       0.00642983       0.00458009       0.06284162
C        8.73075321       1.89010533      15.69030469       10       0.00283571      -0.00192510       0.62137658
C        9.96783466       2.60712733      15.44594543       10       0.00357097       0.00295546      -1.25813978
C        7.54456769       4.00270719      15.67181555       10       0.00294823      -0.00029818       0.20883520
C        8.75742194       4.70734211      15.69794087       10       0.00277581       0.00147107       0.09244438
C        6.33281113       6.10175200      15.69173184       10       0.00171554       0.00520398       0.04784559
C        7.54385414       6.80289235      15.70561554       10       0.00176346      -0.00097190       0.03851028
C        5.12091241       8.20117338      15.69173167       10       0.00056188       0.00217259       0.03858360
C        6.33340928       8.89897431      15.70561529       10       0.00857917       0.00322329       0.04852071
O       10.01074909       2.58192874      13.99609182       11       0.00385332       0.00665713       0.00511063
H        9.37832872       3.20986019      13.51580355       12       0.00079812       0.00293224       0.00084993
