132
Lattice="12.12 0.0 0.0 -6.06 10.496227893867395 0.0 0.0 0.0 40.0" Properties=species:S:1:pos:R:3:tags:I:1:forces:R:3 energy=-1208.4388411050315 stress="0.002697089310803359 2.4514937115901876e-05 -1.2575166356753118e-06 2.4514937115901876e-05 0.002665089194047984 -1.0870109411979363e-06 -1.2575166356753118e-06 -1.0870109411979363e-06 0.002878614652075884" pbc="T T F"
C       -0.11162533       0.20113370       9.99245621        2      -0.00070702      -0.00059717      -0.00221675
Ti      -0.12483634       1.94798354      11.32272597        0      -0.00285033      -0.00191597      -0.00582991
Ti       1.39238719       1.08251740       8.71131362        0      -0.00163804      -0.00044682       0.00525364
O       -0.12873689       1.96104448       7.77823699        1      -0.00093806       0.00041770      -0.00363185
O        1.40301192       1.07662483      12.23008024        3      -0.00052595       0.00109029      -0.22848764
C       -1.64221563       2.82663637      10.03377933        2      -0.00182134      -0.00272393       0.00078480
Ti      -1.62733827       4.60473748      11.25048196        0      -0.00005048      -0.00091987       0.00101173
Ti      -0.12040062       3.70495246       8.71539861        0       0.00041977      -0.00261935       0.00381903
O       -1.63628320       4.57282544       7.77198170        1       0.00412457       0.00050814      -0.00282900
O       -0.10767634       3.72292090      12.23008024        3      -0.00079587      -0.00245778      -0.43562005
C       -3.15325288       5.46835894       9.98034240        2      -0.00095622      -0.00156044       0.00108193
Ti      -3.15479191       7.20866107      11.29245668        0      -0.00059528       0.00255610      -0.00535093
Ti      -1.63966716       6.33318240       8.69675487        0       0.00393826       0.00207648       0.00384731
O       -3.15006874       7.21051915       7.75756584        1       0.00101074      -0.00428559      -0.00004916
O       -1.63862870       6.34369214      12.23008024        3      -0.00137506      -0.00352270      -0.30460668
C       -4.66540725       8.08149000       9.98863092        2      -0.00115311       0.00005507       0.00092374
Ti      -4.66244236       9.82379949      11.28136324        0       0.00215087       0.00435105      -0.00081008
Ti      -3.14938828       8.95866464       8.70245990        0       0.00149209      -0.00145569       0.00303364
O       -4.66475462       9.83241338       7.76241904        1       0.00244484       0.00266658      -0.00003828
O       -3.15085667       8.95386008      12.23008024        3       0.00039789       0.00252611      -0.29076308
C        2.91061226       0.20873387       9.99851877        2      -0.00100939      -0.00076777       0.00200740
Ti       2.90871433       1.95756540      11.29015783        0      -0.00457468      -0.00449993      -0.00182821
Ti       4.42341795       1.08427324       8.71011322        0       0.00134350      -0.00063397       0.00737821
O        2.90853973       1.95650493       7.76987871        1      -0.00197633      -0.00142347      -0.00187451
O        4.42396603       1.08433162      12.23008024        3      -0.00291242      -0.00252739      -0.25987201
C        1.39203931       2.82934755      10.00437121        2       0.00295010       0.00172979       0.00290154
Ti       1.38709700       4.57618861      11.29755819        0      -0.00233861       0.00223195      -0.00685259
Ti       2.90628433       3.70627916       8.70791886        0       0.00321383       0.00569589       0.00337429
O        1.38718891       4.57817442       7.77234877        1      -0.00010954       0.00662764      -0.00093331
O        2.90611891       3.70830410      12.23008024        3      -0.00416245      -0.00016728      -0.25836814
C       -0.12574854       5.45989758       9.99822158        2       0.00183859      -0.00266117       0.00161250
Ti      -0.12576889       7.20687476      11.29536006        0       0.00378146       0.00382504      -0.00821517
Ti       1.39202766       6.33151860       8.70838842        0      -0.00490025      -0.00038573      -0.00492277
O       -0.12097828       7.20931759       7.76690604        1       0.00127393      -0.00278402      -0.00044493
O        1.39032642       6.32935470      12.23008024        3       0.00093283       0.00055146      -0.27848307
C       -1.63594210       8.08373218       9.99641310        2      -0.00048536       0.00267473       0.00183183
Ti      -1.63730029       9.83233129      11.29037386        0      -0.00351466      -0.00101502       0.00153031
Ti      -0.11956433       8.95637321       8.71081682        0       0.00109661       0.00250058       0.00008474
O       -1.63233063       9.83348064       7.76839996        1      -0.00227066       0.00033041       0.00019220
O       -0.12295254       8.95517249      12.23008024        3      -0.00017149      -0.00255657      -0.22962498
C        5.93944816       0.20922240      10.00494920        2      -0.00070050      -0.00119908       0.00063327
Ti       5.94320257       1.96296283      11.30204260        0      -0.00006510       0.00075717       0.00093375
Ti       7.45397092       1.08637869       8.71702508        0      -0.00453501      -0.00035602      -0.00425053
O        5.94458732       1.95682192       7.77318504        1      -0.00182606       0.00143139       0.00007093
O        7.45035667       1.08349940      12.23008024        3       0.00186509      -0.00189830      -0.14028396
C        4.42235905       2.83316597       9.99929367        2      -0.00071116       0.00073365      -0.00203918
Ti       4.40987222       4.58136241      11.28864561        0       0.00581624       0.00036918       0.00030626
Ti       5.93458869       3.70700414       8.70321330        0      -0.00099964      -0.00272895       0.00221581
O        4.42176675       4.57532929       7.76344665        1      -0.00439406      -0.00163663       0.00137525
O        5.92455472       3.71411830      12.23008024        3       0.00078591       0.00076429      -0.32669952
C        2.90531322       5.45599144       9.99272772        2      -0.00097145       0.00127359       0.00321965
Ti       2.90169598       7.19612840      11.28650288        0      -0.00010630      -0.00714293      -0.00134950
Ti       4.42123795       6.33203524       8.69660232        0      -0.00036605       0.00188426      -0.00122581
O        2.90199411       7.21092754       7.76375634        1      -0.00518796       0.00299579       0.00269833
O        4.41752002       6.32942258      12.23008024        3       0.00034831      -0.00193701      -0.34828038
C        1.39269622       8.08054888       9.99930927        2       0.00047822      -0.00023147       0.00158800
Ti       1.39253435       9.82915383      11.30435663        0       0.00039061      -0.00407345      -0.00460040
Ti       2.90835551       8.95362852       8.71108777        0      -0.00272986       0.00318215       0.00291511
O        1.39773090       9.83580738       7.77644706        1      -0.00160489      -0.00415221      -0.00023114
O        2.90395361       8.93692654      12.23008024        3      -0.00312540       0.00030177      -0.26031368
C        8.97090513       0.21808543      10.02116716        2       0.00132968      -0.00012134      -0.00192651
Ti       8.97760519       1.92082846      11.26873347        0      -0.00101226       0.00421843      -0.00464255
Ti      10.48733689       1.08196001       8.72263792        0       0.00299538      -0.00032258      -0.00453289
O        8.97244917       1.95702971       7.77754652        1       0.00115755       0.00119578      -0.00758455
O       10.56665200       0.94921826      12.23008024        3       0.00127930       0.00463463      -1.15051740
C        7.46328144       2.82825541      10.01326493        2       0.00248868      -0.00046535      -0.00075364
Ti       7.41033861       4.60935241      11.25393373        0      -0.00200647       0.00051474       0.00009472
Ti       8.96550005       3.70684779       8.71941684        0      -0.00139068      -0.00163046       0.00081696
O        7.45485960       4.57428703       7.76755635        1       0.00019024       0.00192515      -0.00123563
O        8.88624898       3.88172835      12.23008024        3      -0.00283633      -0.00834947      -0.81695398
C        5.92491617       5.46361575       9.98432020        2       0.00043353       0.00121456       0.00170925
Ti       5.93432133       7.20309730      11.28724501        0      -0.00170053      -0.00266660       0.00051119
Ti       7.45522383       6.33535553       8.69296007        0      -0.00007038       0.00117251      -0.00011298
O        5.93558875       7.20768059       7.75665525        1       0.00151853       0.00123545       0.00379042
O        7.44387838       6.35401625      12.23008024        3       0.00070667      -0.00133026      -0.38368823
C        4.42144428       8.06736956       9.98708120        2       0.00210233      -0.00056115       0.00216201
Ti       4.43169657       9.79959959      11.29478515        0      -0.00386487       0.00328950       0.00087344
Ti       5.93992029       8.95641703       8.69952569        0      -0.00068511      -0.00360336       0.00364092
O        4.41738038       9.83642182       7.77360981        1       0.00062550      -0.00494051      -0.00111834
O        5.95481371       8.93457958      12.23008024        3      -0.00085990       0.00132545      -0.30152428
C        0.25566054      -0.27500220      15.43046483       10       0.00397784       0.00297273       0.05640903
C        1.46408357       0.42787409      15.43885306       10       0.00439414      -0.00217856       0.10967026
C       -0.93644201       1.81309942      15.40609416       10       0.00328537      -0.00118096       0.71666749
C        0.25195574       2.52569258      15.41373290       10      -0.00100030       0.00457903       0.10326504
C       -2.17505065       3.96126056      15.40608861       10      -0.00080435      -0.00477329       0.95905825
C       -0.96349272       4.63273172      15.41373034       10      -0.00063104       0.00411358       0.13001312
C       -3.38756949       6.03680692      15.43046428       10       0.00128258      -0.00145633       0.07771568
C       -2.17445024       6.73231282      15.43885286       10       0.00115582       0.00147037       0.09827480
C       -4.59882898       8.12766048      15.42857189       10      -0.00198102       0.00394101       0.12425967
C       -3.38735247       8.82717488      15.43986155       10       0.00169982      -0.00158820       0.08963415
C        2.67434615      -0.27109174      15.44088657       10       0.00718439       0.00094175       0.08763902
C        3.88473889       0.42961006      15.43986146       10      -0.00094198       0.00115897       0.07737184
C        1.46832625       1.82546416      15.43046504       10      -0.00198723       0.00229431       0.07227833
C        2.67447424       2.52893365      15.42140491       10      -0.00346081      -0.00082417       0.05395371
C        0.24923059       3.92801797      15.38760502       10       0.00127785       0.00579067       0.26094539
C        1.45929600       4.62716458      15.39927497       10       0.00460137      -0.00193729      -0.02302520
C       -0.96226112       6.03641139      15.43046428       10       0.00148730       0.00234048       0.08127079
C        0.25003179       6.72895985      15.42140501       10      -0.00058819       0.00174084       0.04938857
C       -2.17546327       8.13009190      15.44088678       10       0.00280044      -0.00288230       0.07657098
C       -0.96303993       8.82715833      15.43986155       10      -0.00172781      -0.00131239       0.07682124
C        5.09527429      -0.27072025      15.44088657       10      -0.00191174       0.00201129       0.07671263
C        6.30603151       0.42793785      15.43885306       10      -0.00185431      -0.00315134       0.12305697
C        3.88502591       1.82841431      15.42857176       10      -0.00146941       0.00230875       0.09946960
C        5.09542860       2.52898039      15.42140491       10       0.00040799      -0.00184066       0.07976600
C        2.67310695       3.92789759      15.40752141       10       0.00455696      -0.00068876       0.08418666
C        3.88493520       4.62793040      15.40473355       10       0.00120654       0.00330464       0.06822677
C        1.46066094       6.02800743      15.40752131       10       0.00105717      -0.00254453       0.09181483
C        2.67268051       6.72755011      15.40473344       10      -0.00139069       0.00171133       0.07060875
C        0.24844061       8.12775893      15.42857189       10       0.00401789       0.00065879       0.09356058
C        1.46028887       8.82543813      15.42140476       10       0.00231696      -0.00017437       0.07675928
C        7.51458729      -0.27432518      15.43046483       10      -0.00475203      -0.00238625       0.05393874
C        8.72911537       0.42876417      15.41373271       10      -0.00448277      -0.00133032       0.15839386
C        6.30192924       1.82584650      15.43046504       10       0.00093863       0.00034092       0.06344240
C        7.51830620       2.52630726      15.41373290       10       0.00151188       0.00325047       0.15358782
C        5.09787903       3.92806624      15.40752141       10      -0.00297645      -0.00094324       0.07346139
C        6.31134096       4.62763270      15.39927497       10      -0.00396861       0.00095275       0.03574467
C        3.88518474       6.02797584      15.40165555       10       0.00026021       0.00244625       0.08074908
C        5.09687177       6.72805475      15.40473344       10       0.00476032      -0.00038122       0.10030343
C        2.67298838       8.12768937      15.40752114       10       0.00201477      -0.00285806       0.07963505
C        3.88508586       8.82886709      15.39927456       10       0.00198984      -0.00072105       0.01612024
C        9.94517507      -0.27008664      15.38760497       10      -0.00063743      -0.00006713       0.22025396
C       11.16136722       0.42871510      15.41373271       10       0.00129953      -0.00194610       0.12626319
C        8.70511738       1.81372867      15.40609416       10      -0.00261360       0.00164327       0.73810285
C        9.94248008       2.53072226      15.16173490       10       0.00282272      -0.00709225      -0.70318570
C        7.52243388       3.92863333      15.38760502       10      -0.00435532       0.00472904       0.20266506
C        8.73483653       4.63362819      15.41373034       10       0.00042856       0.00013700       0.19906034
C        6.30953491       6.02858066      15.40752131       10       0.00422048      -0.00131811       0.06442121
C        7.52014182       6.72946828      15.42140501       10       0.00360405       0.00698355       0.07654403
C        5.09749907       8.12796471      15.40752114       10       0.00154017      -0.00419517       0.06177702
C        6.30974537       8.82564989      15.42140476       10      -0.00283261       0.00397798       0.08060832
O        9.93591835       2.54928044      13.72299003       11       0.00724178       0.00331105       0.00380540
H        9.33752037       3.29291129      13.32987012       12      -0.00631483      -0.00489848      -0.00274251
