131
Lattice="12.12 0.0 0.0 -6.06 10.496227893867395 0.0 0.0 0.0 40.0" Properties=species:S:1:pos:R:3:tags:I:1:forces:R:3 energy=-1205.3128044683717 stress="0.0028591497287771563 -2.6104516208694555e-07 4.7476618616116526e-06 -2.6104516208694555e-07 0.002858658225393182 -1.3777414673663294e-06 4.7476618616116526e-06 -1.3777414673663294e-06 0.0021581182425693644" pbc="T T F"
C       -0.00162126       0.00110873      10.00245334        2       0.00034076      -0.00005367       0.00082860
Ti       0.00014744       1.74890192      11.30573776        0       0.00065994      -0.00075940      -0.00277485
Ti       1.51402317       0.87549524       8.69689995        0       0.00050180      -0.00049150       0.00113887
O        0.00193374       1.74876993       7.77024259        1       0.00094189      -0.00025041      -0.00017629
O        1.51228477       0.87451446      12.23159545        3       0.00010191       0.00014308       0.07289329
C       -1.51465644       2.62328701      10.00200758        2       0.00053011      -0.00026902       0.00096127
Ti      -1.51378752       4.36924974      11.30521918        0       0.00019732       0.00116181      -0.00054679
Ti       0.00103813       3.49902954       8.69235566        0       0.00014393      -0.00045791       0.00095720
O       -1.51508191       4.37567240       7.77155351        1       0.00046725       0.00057469       0.00075354
O        0.00121981       3.49733604      12.23159545        3       0.00007240      -0.00083299       0.06859204
C       -3.02948543       5.24547967      10.00478920        2       0.00069539      -0.00047472       0.00117940
Ti      -3.02638854       7.00132166      11.32681272        0       0.00098805       0.00236890       0.00136045
Ti      -1.51477935       6.11916848       8.69886462        0       0.00057664       0.00019979       0.00149196
O       -3.02830187       6.99994218       7.78108192        1       0.00052750      -0.00004846       0.00080088
O       -1.51219716       6.11598728      12.23159545        3       0.00135655      -0.00049857       0.02517074
C       -4.54445827       7.87248539      10.01286422        2       0.00038260      -0.00007750       0.00078186
Ti      -4.54248339       9.62047515      11.31747052        0       0.00366947      -0.00192589       0.00207236
Ti      -3.03118571       8.74753487       8.70255198        0       0.00081665      -0.00023978       0.00161767
O       -4.54199605       9.62004445       7.77843122        1       0.00109466      -0.00049870       0.00078215
O       -3.03323196       8.74876418      12.23159545        3       0.00038417      -0.00015487      -0.10932721
C        3.03030027      -0.00029059      10.01354892        2       0.00039730      -0.00015839       0.00058400
Ti       3.03058109       1.74548986      11.31165117        0       0.00078470      -0.00093695      -0.00141004
Ti       4.54650949       0.87462530       8.69843498        0       0.00024135      -0.00018931       0.00147953
O        3.03124628       1.74673162       7.77511936        1       0.00053186      -0.00019177       0.00008112
O        4.54718326       0.87438776      12.23159545        3       0.00049967       0.00053529       0.04748141
C        1.51524534       2.62395471      10.00248190        2       0.00019151      -0.00056679       0.00151085
Ti       1.51437254       4.37406213      11.30702619        0      -0.00007742      -0.00064139      -0.00243547
Ti       3.02988356       3.49791229       8.69168770        0       0.00047104       0.00024735       0.00095123
O        1.51579576       4.37405080       7.77072366        1       0.00017751      -0.00026213      -0.00023808
O        3.02745112       3.49796131      12.23159545        3       0.00006336       0.00034781       0.07505177
C        0.00087281       5.24638200      10.00316475        2       0.00039960      -0.00045517       0.00150470
Ti      -0.00618677       7.00121137      11.31997996        0      -0.00039566       0.00038191      -0.00031343
Ti       1.51427943       6.12328486       8.69413569        0       0.00099073      -0.00047454       0.00127491
O       -0.00310510       6.99940834       7.77870124        1       0.00071197      -0.00020808       0.00058966
O        1.51379454       6.12362046      12.23159545        3       0.00154412      -0.00074563       0.04575506
C       -1.51454146       7.87216934      10.02219738        2       0.00050673      -0.00017111       0.00015988
Ti      -1.51631026       9.61679452      11.32926385        0      -0.00151021      -0.00172707       0.00121309
Ti       0.00328120       8.74852186       8.69908011        0       0.00033190      -0.00038643       0.00153770
O       -1.51614277       9.61912220       7.78146353        1       0.00054517      -0.00018766       0.00084596
O        0.00838712       8.74837088      12.23159545        3       0.00122649      -0.00078371       0.01202650
C        6.06262690       0.00113321      10.00517530        2       0.00082385      -0.00014023       0.00130796
Ti       6.06153178       1.74934294      11.30796677        0       0.00013784      -0.00086039      -0.00131906
Ti       7.57412676       0.87470961       8.69369942        0       0.00055345      -0.00028537       0.00116301
O        6.05833436       1.74865890       7.77235864        1       0.00011554      -0.00042939       0.00051181
O        7.57853172       0.87404278      12.23159545        3       0.00121231      -0.00034832       0.08376688
C        4.54549097       2.62496752      10.00443884        2       0.00053213      -0.00022031       0.00121931
Ti       4.54442099       4.37357189      11.30735374        0       0.00096966      -0.00046472      -0.00262522
Ti       6.05968060       3.49895132       8.69298633        0       0.00051167      -0.00014925       0.00074947
O        4.54497628       4.37347891       7.77088102        1       0.00063461      -0.00017828      -0.00061811
O        6.06036750       3.49925369      12.23159545        3       0.00092045      -0.00034325       0.07090625
C        3.03005859       5.24795182      10.00425610        2       0.00054910      -0.00017108       0.00034497
Ti       3.02911582       6.99771137      11.30711860        0       0.00050306       0.00061168      -0.00248033
Ti       4.54578322       6.12326777       8.69161546        0       0.00008945      -0.00025510       0.00091303
O        3.02992235       6.99660124       7.77086194        1       0.00040493       0.00021774      -0.00027992
O        4.54436926       6.12472924      12.23159545        3      -0.00015170       0.00003659       0.07686648
C        1.51710572       7.87212064      10.00324651        2       0.00067528       0.00004557       0.00151450
Ti       1.51955525       9.62308019      11.30585402        0      -0.00102148      -0.00053819      -0.00023476
Ti       3.03028047       8.74587629       8.69257052        0       0.00066343       0.00029142       0.00101494
O        1.51312704       9.62057900       7.77199342        1      -0.00013912      -0.00050184       0.00088459
O        3.03166501       8.74664360      12.23159545        3       0.00079385       0.00057535       0.06586037
C        9.09104649       0.00018648      10.00225604        2       0.00068115      -0.00002397       0.00095894
Ti       9.09119814       1.74897862      11.30745331        0       0.00083495      -0.00033811      -0.00442552
Ti      10.60520948       0.87458118       8.68952257        0       0.00074952      -0.00027542       0.00160420
O        9.08916404       1.74975413       7.77056311        1       0.00039468      -0.00005614      -0.00101306
O       10.60664217       0.87423351      12.23159545        3       0.00082657      -0.00027858       0.05999596
C        7.57528502       2.62410331      10.00343162        2       0.00086698      -0.00039602       0.00117113
Ti       7.57624884       4.37323827      11.30809988        0       0.00097497       0.00018332      -0.00166655
Ti       9.08953932       3.49939021       8.69303322        0       0.00060798      -0.00000757       0.00124992
O        7.57475445       4.37533945       7.77221639        1       0.00046911       0.00036766       0.00031361
O        9.09197750       3.49661020      12.23159545        3       0.00096642      -0.00071005       0.08193280
C        6.05950204       5.24776598      10.00426700        2       0.00054296      -0.00005319       0.00132815
Ti       6.06297041       6.99907742      11.31083326        0       0.00131499       0.00000766      -0.00167267
Ti       7.57584126       6.12192019       8.69810833        0       0.00051336       0.00016130       0.00141442
O        6.06274842       6.99793886       7.77469651        1       0.00059714      -0.00014283       0.00005823
O        7.57674030       6.12190802      12.23159545        3      -0.00003973      -0.00057468       0.06459312
C        4.54540474       7.87210124      10.00275857        2       0.00070353       0.00036696       0.00155260
Ti       4.54576991       9.62191974      11.30597197        0       0.00101717       0.00024413      -0.00296087
Ti       6.05912141       8.74749280       8.69653884        0       0.00083230       0.00003106       0.00121447
O        4.54642718       9.62022351       7.77035236        1       0.00084088      -0.00049858      -0.00022160
O        6.05948352       8.75019598      12.23159545        3       0.00003744       0.00028568       0.08652047
C        0.04082239       0.07001546      17.10658893       10      -0.00220353       0.00015114       0.01132606
C        1.24921378       0.77059696      17.09129688       10       0.00260747      -0.00040500      -0.04304553
C       -1.16894409       2.16778828      17.11190963       10      -0.00174042      -0.00015513      -0.01408547
C        0.04267820       2.86730099      17.09419920       10      -0.00152387      -0.00066419      -0.02664691
C       -2.38049511       4.26502299      17.10658893       10      -0.00181125      -0.00169738       0.00128880
C       -1.16949594       4.96147965      17.09129688       10      -0.00175035       0.00025558      -0.00727808
C       -3.58635693       6.36752701      17.04347818       10      -0.00102344      -0.00041864       0.02992019
C       -2.38061350       7.04986498      17.00165596       10      -0.00122644       0.00284968      -0.12776905
C       -4.80163969       8.47080368      17.04347818       10      -0.00254394      -0.00031577       0.04253295
C       -3.60869661       9.17453993      17.00165596       10       0.00361009      -0.00088672      -0.10046514
C        2.46413548       0.06337656      17.04347818       10       0.00093328      -0.00269588       0.03939792
C        3.67896967       0.76771669      17.01139950       10      -0.00120090       0.00020653      -0.03303923
C        1.25458554       2.16841410      17.08025391       10      -0.00114108      -0.00067839      -0.01224419
C        2.46637222       2.86607183      17.05833950       10      -0.00184986       0.00114391      -0.01007553
C        0.04346862       4.26699548      17.08025391       10      -0.00154048      -0.00005935      -0.02480232
C        1.25363367       4.96665228      17.05833950       10      -0.00112500       0.00038619      -0.01481661
C       -1.17489817       6.36779019      17.04347818       10      -0.00280440       0.00082867       0.00921405
C        0.04287458       7.06649864      17.01139950       10      -0.00132101      -0.00054843      -0.04107844
C       -2.38288242       8.46652169      16.54885030       10       0.00011107       0.00107627      -0.11280814
C       -1.15507810       9.17325582      17.00165596       10      -0.00112460      -0.00035172      -0.14146210
C        4.89320347       0.06238391      17.04347818       10      -0.00059162      -0.00007029       0.02875641
C        6.10843790       0.76998729      17.09129688       10      -0.00046364       0.00060904      -0.00132432
C        3.67938997       2.16387904      17.04373321       10      -0.00146082       0.00098275      -0.01740904
C        4.89258197       2.86623720      17.05833950       10      -0.00084111       0.00127020       0.00357127
C        2.46741269       4.26715959      17.05565789       10      -0.00149390       0.00100659      -0.00751611
C        3.67961082       4.96674958      17.05065712       10      -0.00213958       0.00072716      -0.01452511
C        1.25185784       6.36837774      17.04373321       10      -0.00067671       0.00039581      -0.04168146
C        2.46657914       7.06766655      17.05833950       10      -0.00090656       0.00097669      -0.01478179
C        0.03862624       8.47045958      17.04347818       10      -0.00056371      -0.00028599      -0.00478996
C        1.25928215       9.16875056      17.09129688       10      -0.00062669       0.00144948      -0.00715649
C        7.31697019       0.06943840      17.10658893       10       0.00125301       0.00201046      -0.00257500
C        8.52954480       0.76957685      17.11352745       10       0.00107905       0.00217047      -0.00143569
C        6.10379998       2.16812494      17.08025391       10      -0.00009238       0.00060239       0.00415870
C        7.31593568       2.86735250      17.09419920       10       0.00009119       0.00013423       0.01447764
C        4.89182643       4.26699721      17.05565789       10      -0.00232344       0.00146858      -0.00421267
C        6.10537949       4.96654480      17.05833950       10      -0.00235907       0.00076304       0.00927575
C        3.67936859       6.36631899      17.05565789       10      -0.00197559      -0.00002070      -0.01341805
C        4.89220392       7.06770787      17.05833950       10      -0.00189035      -0.00050766      -0.00454098
C        2.46727175       8.46557266      17.08025391       10      -0.00036910       0.00113501      -0.02502109
C        3.67913332       9.16607416      17.09419920       10      -0.00070781       0.00111396      -0.02506952
C        9.73910866       0.06880382      17.11190963       10      -0.00147865      -0.00031235      -0.01441935
C       10.94886787       0.76975940      17.11352745       10       0.00204398       0.00067150      -0.03163058
C        8.52755219       2.16760794      17.11190963       10      -0.00006236       0.00027733      -0.00628632
C        9.73930755       2.86489119      17.11352745       10      -0.00028946      -0.00146022      -0.00616732
C        7.31547434       4.26664041      17.08025391       10      -0.00289581      -0.00047399       0.00883141
C        8.52854920       4.96148133      17.09129688       10      -0.00086750      -0.00202092      -0.00172450
C        6.10684655       6.36823299      17.04373321       10      -0.00183426       0.00040561      -0.01684027
C        7.31578256       7.06658462      17.01139950       10      -0.00056762      -0.00069874      -0.03392872
C        4.89044459       8.46595493      17.08025391       10      -0.00211639      -0.00101790      -0.01146421
C        6.09842485       9.16940510      17.09129688       10       0.00158953       0.00136357      -0.03009925
O       -2.40646315       8.47519528      15.22190389       11      -0.00238541       0.00328714      -0.00273806
