131
Lattice="12.12 0.0 0.0 -6.06 10.496227893867395 0.0 0.0 0.0 40.0" Properties=species:S:1:pos:R:3:tags:I:1:forces:R:3 energy=-1204.5613517527945 stress="0.0028840721446660306 9.089661278056822e-08 3.26057238604952e-07 9.089661278056822e-08 0.0028854798166075913 -5.924178633036475e-07 3.26057238604952e-07 -5.924178633036475e-07 0.0020941924921291503" pbc="T T F"
C       -0.00105011       0.00045958      10.00325735        2       0.00027414      -0.00015747      -0.00069623
Ti      -0.00057396       1.74944149      11.29164122        0       0.00011492      -0.00038885      -0.00027402
Ti       1.51486051       0.87432324       8.71434400        0       0.00016867      -0.00031633      -0.00007150
O        0.00134349       1.74883008       7.77260129        1      -0.00066209       0.00032005       0.00022813
O        1.51291628       0.87713520      12.23008024        3       0.00019641      -0.00038697       0.13089026
C       -1.51502713       2.62350288      10.00145405        2      -0.00021980      -0.00018108       0.00035926
Ti      -1.51495113       4.37211045      11.29129968        0      -0.00005827       0.00008140      -0.00026769
Ti       0.00003616       3.49882448       8.71135781        0      -0.00027132      -0.00010582       0.00011812
O       -1.51520736       4.37552889       7.77385208        1       0.00014528      -0.00110355      -0.00001375
O        0.00069377       3.49837891      12.23008024        3       0.00004508      -0.00020178       0.09374326
C       -3.03002178       5.24757758      10.00595491        2       0.00019162       0.00034158      -0.00109730
Ti      -3.02893348       6.99884354      11.31345744        0       0.00013256       0.00066227       0.00012290
Ti      -1.51532963       6.12273190       8.71716431        0      -0.00003749       0.00023068      -0.00101711
O       -3.02940003       6.99927962       7.77993019        1      -0.00018606      -0.00090402      -0.00284425
O       -1.51173729       6.11861946      12.23008024        3       0.00001706      -0.00005577       0.11395996
C       -4.54503318       7.87197574      10.00925178        2       0.00048405       0.00002922      -0.00232348
Ti      -4.54448759       9.62090325      11.30186169        0       0.00100084      -0.00062101       0.00025503
Ti      -3.02978073       8.74680252       8.72199847        0      -0.00002322      -0.00006067      -0.00437380
O       -4.54264951       9.62029140       7.77785553        1      -0.00102586       0.00049550      -0.00199468
O       -3.03242924       8.74770840      12.23008024        3       0.00004262      -0.00012563       0.06915062
C        3.03014548      -0.00021816      10.01009855        2       0.00023047      -0.00050627      -0.00243273
Ti       3.02941233       1.74911521      11.29391330        0       0.00019715      -0.00045786      -0.00011060
Ti       4.54514372       0.87403284       8.71664643        0       0.00001913      -0.00015384      -0.00134578
O        3.03036989       1.74767141       7.77487215        1      -0.00019126       0.00064004      -0.00057086
O        4.54582255       0.88058739      12.23008024        3      -0.00009985       0.00013091       0.11563054
C        1.51480248       2.62418653      10.00239505        2      -0.00005161      -0.00043984      -0.00012575
Ti       1.51461683       4.37329279      11.29197808        0      -0.00004135      -0.00011225      -0.00028766
Ti       3.03000554       3.49827153       8.71179965        0      -0.00002249      -0.00007255      -0.00011343
O        1.51490083       4.37367113       7.77224153        1      -0.00003983      -0.00015201       0.00037253
O        3.03018022       3.49988554      12.23008024        3       0.00010868      -0.00013847       0.10729255
C        0.00035692       5.24769258      10.00350087        2      -0.00043444      -0.00000134      -0.00047105
Ti      -0.00067139       6.99826783      11.29939004        0      -0.00064743       0.00018216       0.00072281
Ti       1.51447848       6.12303536       8.71256451        0      -0.00002636      -0.00005689       0.00024228
O       -0.00170465       6.99853314       7.77674349        1       0.00085988      -0.00055663      -0.00081947
O        1.51757363       6.12142416      12.23008024        3      -0.00032004      -0.00000016       0.12017605
C       -1.51511999       7.87235977      10.01276700        2      -0.00035619       0.00016613      -0.00278165
Ti      -1.51554985       9.61946318      11.31592333        0      -0.00051112      -0.00052319      -0.00027414
Ti      -0.00015030       8.74729104       8.71727147        0      -0.00015988      -0.00012800      -0.00119458
O       -1.51625751       9.62028561       7.78030014        1       0.00065229       0.00043894      -0.00313004
O        0.00581998       8.74637986      12.23008024        3      -0.00012067      -0.00026991       0.11077409
C        6.06045777       0.00031354      10.00624836        2      -0.00035370      -0.00044219      -0.00117841
Ti       6.06101013       1.74938153      11.29220927        0      -0.00015909      -0.00044060      -0.00000647
Ti       7.57486244       0.87484022       8.71163566        0      -0.00029079      -0.00029076       0.00009114
O        6.05871954       1.74833245       7.77364569        1       0.00081833       0.00046267      -0.00000453
O        7.57617455       0.87586591      12.23008024        3      -0.00050940      -0.00034495       0.09637420
C        4.54492576       2.62418703      10.00268544        2       0.00008805      -0.00043501      -0.00042271
Ti       4.54496495       4.37316245      11.29238122        0       0.00007892      -0.00001844      -0.00011778
Ti       6.05997920       3.49873531       8.71167421        0       0.00031167      -0.00021909       0.00044231
O        4.54499345       4.37326760       7.77196157        1       0.00002915      -0.00003963       0.00023702
O        6.05908655       3.49929954      12.23008024        3       0.00022002      -0.00011507       0.13605794
C        3.02983128       5.24810169      10.00176282        2      -0.00005751       0.00000037       0.00010306
Ti       3.02987854       6.99786697      11.29202175        0      -0.00002642      -0.00008896      -0.00030906
Ti       4.54528283       6.12283756       8.71152044        0      -0.00001610      -0.00001944      -0.00031552
O        3.02964541       6.99737234       7.77207102        1       0.00006051       0.00009846       0.00038815
O        4.54388323       6.12190538      12.23008024        3       0.00022517       0.00002753       0.10906590
C        1.51561868       7.87214693      10.00332223        2      -0.00029113       0.00015241      -0.00041372
Ti       1.51694246       9.62271748      11.29020767        0      -0.00028520      -0.00036324       0.00012813
Ti       3.02994262       8.74668845       8.71106790        0      -0.00006788       0.00028058       0.00028261
O        1.51301822       9.62077572       7.77371545        1       0.00104048       0.00036679       0.00011840
O        3.03037174       8.74644084      12.23008024        3      -0.00000826       0.00000403       0.10108939
C        9.09056439       0.00037228      10.00126802        2      -0.00000628       0.00021166       0.00044053
Ti       9.09018884       1.74947283      11.29173187        0       0.00008001      -0.00019986      -0.00023691
Ti      10.60504866       0.87459490       8.71121561        0       0.00019321      -0.00006988      -0.00119997
O        9.08957540       1.74961165       7.77175027        1       0.00013913      -0.00008417       0.00044031
O       10.60482810       0.87464874      12.23008024        3       0.00045847      -0.00022470       0.11567974
C        7.57520073       2.62406657      10.00178384        2       0.00033841      -0.00029755       0.00036266
Ti       7.57533612       4.37279765      11.29217910        0       0.00027977       0.00017355      -0.00006942
Ti       9.08989681       3.49883545       8.71185715        0       0.00005801       0.00034530      -0.00028961
O        7.57522896       4.37485204       7.77348925        1      -0.00004601      -0.00084296       0.00007604
O        9.08971203       3.49755014      12.23008024        3      -0.00004162       0.00022894       0.10418101
C        6.05973522       5.24797685      10.00243536        2       0.00037217       0.00007528      -0.00039818
Ti       6.05904824       6.99757699      11.29263976        0       0.00041726       0.00014270      -0.00016672
Ti       7.57565762       6.12302983       8.71592540        0       0.00008911       0.00002917      -0.00089319
O        6.06150659       6.99789528       7.77437195        1      -0.00071140      -0.00020963      -0.00046792
O        7.57043268       6.11927544      12.23008024        3      -0.00008807      -0.00009686       0.11299081
C        4.54469933       7.87210906      10.00208756        2       0.00024975       0.00022706      -0.00011286
Ti       4.54472285       9.62181250      11.29179251        0       0.00032893       0.00008867      -0.00032989
Ti       6.06030712       8.74708983       8.71401497        0       0.00025751      -0.00000757      -0.00015234
O        4.54606594       9.62074434       7.77241629        1      -0.00067570       0.00032908       0.00028555
O        6.05620488       8.74670211      12.23008024        3       0.00024891      -0.00000060       0.11507146
C        0.04149588       0.06983411      17.38928424       10       0.00543047       0.00070372       0.00677811
C        1.25198336       0.76930546      17.37399219       10      -0.00008142      -0.00156718       0.01311165
C       -1.16844436       2.16802456      17.39460494       10      -0.00096947       0.00119936      -0.01946102
C        0.04344747       2.86773072      17.37689451       10      -0.00065203       0.00104025      -0.00578822
C       -2.38031837       4.26529728      17.38928424       10      -0.00356591       0.00099788      -0.00412948
C       -1.16938309       4.96399285      17.37399219       10      -0.00087011       0.00086319       0.02095720
C       -3.58747774       6.36790784      17.32617349       10      -0.00274405       0.00090282      -0.02880623
C       -2.38044570       7.04986612      17.28435127       10       0.00048374      -0.00046306      -0.46723959
C       -4.80125548       8.46952264      17.32617349       10       0.00312738      -0.00040899      -0.02848122
C       -3.60732865       9.17418436      17.28435127       10      -0.00051296      -0.00168430      -0.45218471
C        2.46581554       0.06419746      17.32617349       10       0.00260376      -0.00215807      -0.02236178
C        3.67934865       0.76672307      17.29409481       10       0.00328438       0.00198107       0.16410006
C        1.25499636       2.16744161      17.36294922       10       0.00092879      -0.00082218      -0.02614220
C        2.46725250       2.86646460      17.34103481       10       0.00004355       0.00090231      -0.05011896
C        0.04280223       4.26718469      17.36294922       10       0.00043202      -0.00090604      -0.02552943
C        1.25454627       4.96706285      17.34103481       10      -0.00198501       0.00056903      -0.04623885
C       -1.17341775       6.36790465      17.32617349       10       0.00083777       0.00143684      -0.03084191
C        0.04203044       7.06700022      17.29409481       10      -0.00038856      -0.00105563       0.16509093
C       -2.38107761       8.46599714      16.83154561       10       0.00145157      -0.00199365       0.20597666
C       -1.15439171       9.17353008      17.28435127       10       0.00063879       0.00191136      -0.46651721
C        4.89267754       0.06364601      17.32617349       10      -0.00021726      -0.00286339      -0.03270314
C        6.10662872       0.76887670      17.37399219       10       0.00072714       0.00157295       0.01432026
C        3.67972051       2.16397479      17.32642852       10      -0.00167570       0.00174791      -0.10004833
C        4.89225412       2.86636804      17.34103481       10      -0.00072692       0.00057191      -0.04088668
C        2.46705713       4.26668023      17.33835320       10      -0.00182206       0.00026959      -0.01341896
C        3.67991633       4.96671926      17.33335243       10      -0.00086065       0.00139309      -0.05376574
C        1.25216078       6.36837309      17.32642852       10       0.00047356      -0.00007297      -0.09976134
C        2.46688487       7.06696499      17.34103481       10       0.00075733       0.00127647      -0.04825179
C        0.03972518       8.46912707      17.32617349       10      -0.00025941      -0.00154509      -0.03659724
C        1.25756909       9.16760066      17.37399219       10       0.00009266       0.00387910       0.02393767
C        7.31719732       0.06947118      17.38928424       10      -0.00107368      -0.00146883      -0.00387158
C        8.52859121       0.76892830      17.39622276       10       0.00001092       0.00108973      -0.02563518
C        6.10423214       2.16703457      17.36294922       10      -0.00082793       0.00290205      -0.02478083
C        7.31578788       2.86750231      17.37689451       10      -0.00161239      -0.00072361      -0.00035722
C        4.89267015       4.26652610      17.33835320       10      -0.00077115       0.00132450      -0.00371664
C        6.10504951       4.96696866      17.34103481       10      -0.00189749       0.00114987      -0.04134600
C        3.67974012       6.36714644      17.33835320       10      -0.00149468      -0.00029881      -0.00917510
C        4.89247711       7.06704206      17.34103481       10      -0.00057948       0.00136744      -0.04959798
C        2.46717900       8.46627842      17.36294922       10      -0.00215025      -0.00130632      -0.02667992
C        3.67945448       9.16537967      17.37689451       10       0.00047865       0.00247690      -0.00394028
C        9.73941569       0.06855527      17.39460494       10       0.00192788      -0.00022201      -0.01980945
C       10.95028947       0.76913905      17.39622276       10      -0.00059407      -0.00165139      -0.02508921
C        8.52760975       2.16783429      17.39460494       10      -0.00225189       0.00208753      -0.02715098
C        9.73954939       2.86648611      17.39622276       10       0.00263912      -0.00110593      -0.01684574
C        7.31661643       4.26695990      17.36294922       10      -0.00197627       0.00025783      -0.02388287
C        8.52864624       4.96397140      17.37399219       10       0.00245998      -0.00056313       0.01915663
C        6.10708812       6.36829908      17.32642852       10      -0.00124204      -0.00225367      -0.10062453
C        7.31701070       7.06723531      17.29409481       10       0.00036746      -0.00194737       0.16484233
C        4.89176761       8.46642199      17.36294922       10       0.00159304      -0.00058527      -0.02963723
C        6.10115674       9.16808686      17.37399219       10      -0.00184267      -0.00224474       0.01302997
O       -2.38726470       8.46759912      15.47796877       11       0.00273292       0.00010307      -0.00211476
