130
Lattice="12.12 0.0 0.0 -6.06 10.496227893867395 0.0 0.0 0.0 40.0" Properties=species:S:1:pos:R:3:tags:I:1:forces:R:3 energy=-1200.0454454276282 stress="0.00283373241079785 1.310671743904191e-07 1.6773388177252282e-07 1.310671743904191e-07 0.002833149783678386 6.023701334270994e-07 1.6773388177252282e-07 6.023701334270994e-07 0.0029145470916493504" pbc="T T F"
C       -0.00011044      -0.00012471       9.97302682        2       0.00002210       0.00000751      -0.00942014
Ti      -0.00002969       1.74887349      11.29615300        0      -0.00014309      -0.00002314      -0.00029366
Ti       1.51464837       0.87440273       8.69350237        0       0.00014362       0.00033425      -0.00909529
O       -0.00011696       1.74989217       7.77314761        1      -0.00000312       0.00036865       0.00342560
O        1.51493491       0.87469093      12.23159545        3      -0.00042501       0.00017318      -0.10083802
C       -1.51477987       2.62412506       9.97679796        2       0.00014756       0.00008395      -0.00778696
Ti      -1.51579324       4.37184274      11.29314590        0      -0.00031344       0.00042148      -0.00217661
Ti       0.00011956       3.49983385       8.69430251        0       0.00025856       0.00096242      -0.00892637
O       -1.51546200       4.37317361       7.77244224        1      -0.00006768       0.00016877       0.00316217
O        0.00005082       3.49914854      12.23159545        3       0.00017514      -0.00000776      -0.10453880
C       -3.03003220       5.24816043       9.97635079        2       0.00005045       0.00008740      -0.00740093
Ti      -3.03242116       6.99760104      11.29403253        0      -0.00044654       0.00061720      -0.00084047
Ti      -1.51436047       6.12333164       8.69535581        0       0.00034749       0.00016419      -0.00837151
O       -3.03063993       6.99724289       7.77256161        1      -0.00009935       0.00002861       0.00315257
O       -1.51466751       6.12313704      12.23159545        3       0.00070207       0.00021911      -0.12165543
C       -4.54488486       7.87235485       9.97730099        2       0.00009631       0.00017381      -0.00792013
Ti      -4.54546431       9.62174016      11.29451208        0       0.00060646      -0.00092023       0.00012291
Ti      -3.02876577       8.74644747       8.69451893        0       0.00090470      -0.00025039      -0.00943543
O       -4.54461845       9.62110555       7.77293804        1       0.00029153      -0.00023018       0.00298037
O       -3.02954790       8.74686132      12.23159545        3       0.00027125       0.00010844      -0.10583136
C        3.03004432      -0.00000547       9.97615708        2      -0.00018809       0.00005047      -0.00822070
Ti       3.02904164       1.74935324      11.29186444        0      -0.00097849      -0.00111582      -0.00283009
Ti       4.54495023       0.87400376       8.69455757        0       0.00035933       0.00038005      -0.00930323
O        3.03027108       1.74956679       7.77286138        1      -0.00032070      -0.00015938       0.00317929
O        4.54505513       0.87551510      12.23159545        3      -0.00029359       0.00038564      -0.13066052
C        1.51490751       2.62414160       9.97612443        2      -0.00013824       0.00008688      -0.00812681
Ti       1.51561943       4.37184781      11.29337478        0      -0.00051393       0.00039061      -0.00365508
Ti       3.02923880       3.49891165       8.69450463        0       0.00015332       0.00025259      -0.00872855
O        1.51539692       4.37325031       7.77221818        1       0.00002639       0.00017227       0.00345749
O        3.03061662       3.49867124      12.23159545        3      -0.00025486      -0.00024262      -0.13112595
C        0.00005281       5.24847105       9.97354370        2       0.00018912       0.00001204      -0.00835292
Ti       0.00009454       6.99767430      11.30177147        0      -0.00051961       0.00032562       0.00022610
Ti       1.51449765       6.12346869       8.69567928        0       0.00005699       0.00019132      -0.00773153
O       -0.00007297       6.99738599       7.77221781        1      -0.00010194       0.00011849       0.00438672
O        1.51509205       6.12299091      12.23159545        3      -0.00001214       0.00028813      -0.11356225
C       -1.51478274       7.87224252       9.97302210        2      -0.00007897       0.00014336      -0.00847607
Ti      -1.51640965       9.62341116      11.29427714        0      -0.00072597      -0.00039390      -0.00132966
Ti       0.00019156       8.74621812       8.69602422        0       0.00024484       0.00001754      -0.00800500
O       -1.51505599       9.62208637       7.77220171        1      -0.00003829       0.00003359       0.00307922
O        0.00012858       8.74736877      12.23159545        3       0.00028544      -0.00009940      -0.10930181
C        6.06004505       0.00025594       9.97565042        2      -0.00013298       0.00029120      -0.00741573
Ti       6.05939080       1.75004169      11.29774947        0      -0.00019743      -0.00117415      -0.00119947
Ti       7.57492146       0.87421527       8.69496746        0      -0.00032473       0.00034886      -0.00948805
O        6.05994456       1.74965341       7.77381961        1       0.00000676       0.00014991       0.00442658
O        7.57490082       0.87619494      12.23159545        3      -0.00007327       0.00044423      -0.13430330
C        4.54495808       2.62406339       9.97697961        2      -0.00043745      -0.00005029      -0.00716014
Ti       4.54495019       4.37235466      11.29819905        0      -0.00049460       0.00055964      -0.00247416
Ti       6.06003238       3.49876500       8.69724945        0      -0.00007148       0.00017482      -0.00742384
O        4.54507798       4.37328625       7.77402650        1       0.00001023       0.00006826       0.00468055
O        6.05995757       3.49878561      12.23159545        3      -0.00023562       0.00003385      -0.12557143
C        3.03009740       5.24812393       9.97612129        2       0.00010329      -0.00006045      -0.00753595
Ti       3.03305912       6.99749720      11.29554949        0       0.00078498       0.00064014      -0.00193957
Ti       4.54467157       6.12295914       8.69521471        0      -0.00005589      -0.00056112      -0.00862445
O        3.03076808       6.99724767       7.77245684        1       0.00036954      -0.00007800       0.00373300
O        4.54620909       6.12167702      12.23159545        3       0.00026665      -0.00020919      -0.13600519
C        1.51494714       7.87224453       9.97228383        2       0.00028862       0.00012996      -0.00854266
Ti       1.51667670       9.62414298      11.29565045        0       0.00031553       0.00047289      -0.00104157
Ti       3.02868645       8.74623146       8.69479762        0      -0.00095755      -0.00052839      -0.00940943
O        1.51518398       9.62227540       7.77233508        1       0.00005323       0.00035471       0.00336982
O        3.02960876       8.74679900      12.23159545        3       0.00001696       0.00011620      -0.10433123
C        9.08994817      -0.00000880       9.97663303        2       0.00020562       0.00016180      -0.00748544
Ti       9.09139374       1.74975816      11.29237054        0       0.00107301      -0.00046806      -0.00134814
Ti      10.60545459       0.87420722       8.69349899        0      -0.00025318       0.00005210      -0.00978773
O        9.08987602       1.74952430       7.77315080        1       0.00024474      -0.00005364       0.00317684
O       10.60512315       0.87473596      12.23159545        3       0.00043196       0.00016436      -0.10607625
C        7.57488543       2.62420132       9.97638088        2       0.00021706       0.00003229      -0.00702196
Ti       7.57443924       4.37281104      11.29877132        0       0.00115385       0.00097149      -0.00043918
Ti       9.09059991       3.49881660       8.69498343        0      -0.00011826       0.00018952      -0.00928038
O        7.57497714       4.37339076       7.77424584        1       0.00009288       0.00009911       0.00468666
O        9.08893343       3.49894243      12.23159545        3      -0.00009098       0.00001416      -0.13632311
C        6.06001974       5.24789564       9.97599233        2       0.00000770       0.00020059      -0.00731644
Ti       6.06049047       6.99885623      11.29300512        0       0.00074698       0.00152750      -0.00086785
Ti       7.57531523       6.12308948       8.69528890        0      -0.00004554      -0.00041868      -0.00896782
O        6.06003524       6.99740738       7.77337746        1       0.00002317       0.00036125       0.00346130
O        7.57429188       6.12165189      12.23159545        3      -0.00017335      -0.00028193      -0.13749874
C        4.54490193       7.87220545       9.97711956        2       0.00014471       0.00015664      -0.00754331
Ti       4.54530618       9.62172786      11.29296149        0       0.00014275      -0.00027764      -0.00037127
Ti       6.05989561       8.74767785       8.69341359        0      -0.00026414      -0.00003353      -0.00961756
O        4.54454958       9.62118882       7.77266657        1      -0.00034907      -0.00021854       0.00287386
O        6.06004023       8.74708726      12.23159545        3       0.00002266       0.00043648      -0.11086455
C        0.04518935       0.06762440      15.60001650       10      -0.00472277      -0.00169691       0.10808141
C        1.25641000       0.76692761      15.60001650       10      -0.00453375      -0.00359905       0.05215034
C       -1.16646971       2.16561436      15.60001650       10       0.00015392      -0.00051396       0.08352259
C        0.04497995       2.86474385      15.60001650       10       0.00211083      -0.00141390       0.06325463
C       -2.37816915       4.26501012      15.60001650       10      -0.00268898       0.00160064       0.01582335
C       -1.16625461       4.96465888      15.60001650       10      -0.00299531      -0.00026682       0.03927119
C       -3.59082807       6.36608400      15.60001650       10      -0.00637783       0.00212398       0.00936687
C       -2.37888954       7.06555765      15.60001650       10      -0.00441725       0.00243167       0.03797129
C       -4.80355675       8.46571900      15.60001650       10      -0.00039974       0.00225742       0.07757514
C       -3.59216057       9.16519284      15.60001650       10      -0.00169368       0.00195837       0.06064409
C        2.46813266       0.06765864      15.60001650       10      -0.00491978      -0.00335948       0.08309600
C        3.67957775       0.76658063      15.60001650       10      -0.00357743      -0.00114562       0.04214039
C        1.25635375       2.16571825      15.60001650       10       0.00066947      -0.00352505       0.08566703
C        2.46747260       2.86527901      15.60001650       10       0.00065538      -0.00014416       0.04124098
C        0.04518603       4.26436816      15.60001650       10      -0.00161258      -0.00045665       0.07276222
C        1.25669523       4.96458943      15.60001650       10      -0.00122941       0.00074466       0.04325794
C       -1.16706256       6.36462288      15.60001650       10      -0.00361576      -0.00116080       0.05658247
C        0.04526092       7.06458370      15.60001650       10      -0.00217360       0.00220910       0.04841959
C       -2.37998310       8.46507270      15.60001650       10      -0.00230602       0.00199000       0.06837313
C       -1.16772658       9.16409962      15.60001650       10      -0.00144970       0.00348851       0.04485078
C        4.89211038       0.06740552      15.60001650       10      -0.00174578      -0.00203479       0.03028583
C        6.10468310       0.76658353      15.60001650       10       0.00017906      -0.00274962       0.03007758
C        3.67927052       2.16580789      15.60001650       10       0.00225190       0.00025162       0.02339526
C        4.89123140       2.86561507      15.60001650       10       0.00232903       0.00052598       0.02903420
C        2.46834986       4.26489003      15.60001650       10       0.00000190       0.00055096       0.02749150
C        3.67989975       4.96599136      15.60001650       10       0.00073932      -0.00092117       0.03376632
C        1.25759088       6.36459357      15.60001650       10      -0.00203020      -0.00087896       0.05705455
C        2.46936102       7.06557912      15.60001650       10      -0.00256244      -0.00055001       0.04186633
C        0.04496775       8.46463763      15.60001650       10      -0.00057037       0.00246065       0.05786866
C        1.25752688       9.16413653      15.60001650       10       0.00106985       0.00197384       0.04448643
C        7.31750471       0.06754001      15.60001650       10       0.00145881      -0.00355328       0.02336043
C        8.53014981       0.76669836      15.60001650       10       0.00301390      -0.00255423       0.03879792
C        6.10444175       2.16662889      15.60001650       10       0.00247824      -0.00249196      -0.01403112
C        7.31763302       2.86568855      15.60001650       10       0.00374234       0.00088979       0.02919024
C        4.89242037       4.26594784      15.60001650       10       0.00182787      -0.00099558      -0.01445113
C        6.10472380       4.96684901      15.60001650       10       0.00143624       0.00086792       0.02861455
C        3.68125976       6.36592677      15.60001650       10      -0.00109083      -0.00026365       0.01360896
C        4.89314865       7.06657667      15.60001650       10      -0.00149269       0.00322207       0.03585341
C        2.47002157       8.46518176      15.60001650       10       0.00275745       0.00080873       0.06404647
C        3.68213616       9.16518432      15.60001650       10       0.00479605       0.00271395       0.05694093
C        9.74197268       0.06775345      15.60001650       10       0.00234729      -0.00256727       0.07901566
C       10.95388286       0.76690877      15.60001650       10       0.00070572      -0.00233378       0.04838000
C        8.52992899       2.16612350      15.60001650       10       0.00461271      -0.00285239       0.01473768
C        9.74218481       2.86539344      15.60001650       10       0.00589252      -0.00258791       0.03842864
C        7.31709860       4.26608831      15.60001650       10       0.00266846       0.00015802      -0.01710670
C        8.53007843       4.96620174      15.60001650       10       0.00235509      -0.00221299       0.03895560
C        6.10521227       6.36667150      15.60001650       10      -0.00297732       0.00161355       0.00960725
C        7.31716850       7.06682500      15.60001650       10      -0.00032156       0.00025281       0.03626222
C        4.89345875       8.46556194      15.60001650       10       0.00440961       0.00314915       0.07546905
C        6.10492489       9.16533815      15.60001650       10       0.00472487       0.00152351       0.04457797
