130
Lattice="12.12 0.0 0.0 -6.06 10.496227893867395 0.0 0.0 0.0 40.0" Properties=species:S:1:pos:R:3:tags:I:1:forces:R:3 energy=-1201.7616237879927 stress="0.002895137030375408 1.1359771607090621e-07 2.055228847523291e-07 1.1359771607090621e-07 0.0028950967932971864 3.4723036570352515e-07 2.055228847523291e-07 3.4723036570352515e-07 0.002340485755053226" pbc="T T F"
C        0.00000433       0.00002582      10.00279275        2       0.00002982      -0.00002906       0.00463724
Ti      -0.00000583       1.74935086      11.29498940        0       0.00024281       0.00051540       0.00124475
Ti       1.51497553       0.87468358       8.71266423        0       0.00006644       0.00011809       0.00464316
O        0.00000465       1.74939792       7.77353563        1       0.00002006       0.00012521       0.00421979
O        1.51468493       0.87467778      12.23008024        3      -0.00008950      -0.00014376       0.08740609
C       -1.51499057       2.62412508      10.00285544        2      -0.00000563      -0.00010780       0.00457588
Ti      -1.51501663       4.37334090      11.29546366        0       0.00022914       0.00017259       0.00162041
Ti      -0.00000247       3.49875761       8.71276717        0       0.00008496       0.00018831       0.00455823
O       -1.51504823       4.37344421       7.77360713        1      -0.00003145       0.00004785       0.00448675
O       -0.00011906       3.49887001      12.23008024        3      -0.00007319      -0.00011066       0.08219110
C       -3.03005875       5.24810988      10.00298530        2      -0.00008134       0.00002663       0.00460617
Ti      -3.03017720       6.99757792      11.29537814        0       0.00024666      -0.00015004       0.00139152
Ti      -1.51497087       6.12282628       8.71280141        0       0.00008067       0.00006184       0.00459287
O       -3.03002546       6.99745423       7.77359705        1      -0.00000333       0.00001854       0.00443404
O       -1.51488341       6.12302324      12.23008024        3      -0.00011799       0.00008561       0.09260687
C       -4.54499000       7.87219546      10.00283619        2       0.00000522       0.00017582       0.00457366
Ti      -4.54507693       9.62162983      11.29504930        0       0.00019442       0.00015712       0.00100290
Ti      -3.02999843       8.74686724       8.71275638        0       0.00010354       0.00001763       0.00470045
O       -4.54498324       9.62156000       7.77353622        1       0.00006359       0.00004036       0.00417028
O       -3.03008746       8.74670170      12.23008024        3      -0.00011548       0.00006612       0.08288803
C        3.03003196      -0.00000850      10.00290606        2      -0.00013716      -0.00010074       0.00458693
Ti       3.02983877       1.74933069      11.29530188        0       0.00027051       0.00054147       0.00170400
Ti       4.54496393       0.87462277       8.71278662        0      -0.00000782       0.00007868       0.00478704
O        3.03004838       1.74940165       7.77362018        1       0.00009223       0.00009427       0.00452547
O        4.54467706       0.87425356      12.23008024        3      -0.00004985      -0.00008457       0.08451944
C        1.51499125       2.62415334      10.00289198        2      -0.00010916      -0.00020160       0.00437583
Ti       1.51492142       4.37334378      11.29549694        0       0.00025856       0.00025453       0.00203893
Ti       3.02991741       3.49874539       8.71278130        0       0.00001427       0.00010304       0.00464138
O        1.51503144       4.37344738       7.77360334        1       0.00005225       0.00006033       0.00462252
O        3.02946039       3.49885284      12.23008024        3       0.00000632      -0.00006201       0.08522486
C       -0.00000451       5.24823553      10.00288446        2      -0.00014436       0.00001653       0.00426704
Ti      -0.00005430       6.99747085      11.29550650        0       0.00034008      -0.00008312       0.00190942
Ti       1.51497137       6.12282817       8.71281522        0       0.00002344       0.00001337       0.00450534
O       -0.00000938       6.99748694       7.77354990        1       0.00000306       0.00005957       0.00457727
O        1.51486212       6.12315405      12.23008024        3       0.00007414       0.00015179       0.08988002
C       -1.51493995       7.87215734      10.00285658        2      -0.00013862       0.00011952       0.00445993
Ti      -1.51519620       9.62158718      11.29552100        0       0.00030834       0.00009081       0.00155352
Ti       0.00000327       8.74683977       8.71282960        0       0.00001271      -0.00001042       0.00464372
O       -1.51498045       9.62157852       7.77360761        1       0.00005200       0.00006475       0.00451279
O        0.00015683       8.74666518      12.23008024        3       0.00003544       0.00015668       0.09111572
C        6.06001234      -0.00001204      10.00299164        2       0.00006313      -0.00001414       0.00456076
Ti       6.05997486       1.74929367      11.29531726        0      -0.00013133       0.00014965       0.00174736
Ti       7.57502890       0.87461809       8.71277497        0      -0.00006978       0.00004876       0.00478631
O        6.06000258       1.74944270       7.77367133        1       0.00001179       0.00005759       0.00467718
O        7.57541391       0.87443570      12.23008024        3       0.00020788      -0.00000100       0.08594345
C        4.54497138       2.62406239      10.00314326        2       0.00003095      -0.00009025       0.00448425
Ti       4.54489744       4.37346386      11.29534004        0      -0.00023009      -0.00001146       0.00211591
Ti       6.05998923       3.49872912       8.71275217        0      -0.00010504       0.00004052       0.00477973
O        4.54506227       4.37340577       7.77365837        1       0.00002957       0.00000036       0.00473841
O        6.05986563       3.49858616      12.23008024        3       0.00011489      -0.00000981       0.14220802
C        3.03000537       5.24814459      10.00298801        2       0.00010192       0.00012923       0.00431457
Ti       3.03020152       6.99760104      11.29536245        0      -0.00014364      -0.00028676       0.00182914
Ti       4.54495120       6.12286959       8.71273294        0      -0.00004924      -0.00007214       0.00466907
O        3.03001875       6.99746211       7.77358842        1       0.00003492       0.00001170       0.00454417
O        4.54496045       6.12324977      12.23008024        3       0.00019897       0.00023596       0.08767666
C        1.51496961       7.87217142      10.00284249        2       0.00010727       0.00021960       0.00435321
Ti       1.51522122       9.62166979      11.29548514        0      -0.00004685      -0.00014168       0.00148889
Ti       3.02999723       8.74686892       8.71277443        0      -0.00004500      -0.00007715       0.00461701
O        1.51497985       9.62158386       7.77360355        1       0.00000536       0.00007506       0.00448456
O        3.03010921       8.74682022      12.23008024        3       0.00027232       0.00026618       0.08267000
C        9.09000096      -0.00000445      10.00289594        2       0.00023019       0.00008861       0.00465397
Ti       9.09017428       1.74935481      11.29538023        0      -0.00008573       0.00018738       0.00132732
Ti      10.60501959       0.87467853       8.71266933        0       0.00002387       0.00007011       0.00470411
O        9.08993818       1.74940157       7.77362030        1      -0.00007529       0.00008365       0.00440360
O       10.60541837       0.87469239      12.23008024        3       0.00015641      -0.00003811       0.08711219
C        7.57499792       2.62407932      10.00316253        2       0.00016618      -0.00002548       0.00470798
Ti       7.57509429       4.37349628      11.29534045        0      -0.00024441      -0.00012778       0.00166025
Ti       9.09007535       3.49873551       8.71274390        0      -0.00002731       0.00010149       0.00475187
O        7.57493435       4.37340329       7.77364923        1      -0.00005559      -0.00001761       0.00462083
O        9.09045417       3.49879103      12.23008024        3       0.00001034      -0.00004985       0.08813154
C        6.05999710       5.24811381      10.00318139        2       0.00017411       0.00011140       0.00460886
Ti       6.06002714       6.99769013      11.29539911        0      -0.00018262      -0.00035864       0.00135722
Ti       7.57503052       6.12287586       8.71271496        0      -0.00001383      -0.00003225       0.00474181
O        6.05999231       6.99742519       7.77360391        1      -0.00000749      -0.00004690       0.00441667
O        7.57515366       6.12325804      12.23008024        3       0.00003288       0.00007222       0.08826517
C        4.54499186       7.87218923      10.00286606        2       0.00019943       0.00030604       0.00448884
Ti       4.54514558       9.62164956      11.29511185        0      -0.00011054      -0.00003882       0.00107874
Ti       6.05999673       8.74689667       8.71267356        0       0.00000552      -0.00002393       0.00471103
O        4.54498265       9.62155283       7.77353983        1      -0.00002316       0.00003551       0.00417314
O        6.06012247       8.74719224      12.23008024        3       0.00007511       0.00019271       0.08975857
C        0.04514739       0.06749810      16.73534340       10      -0.00213547       0.00026720      -0.01411291
C        1.25721928       0.76720579      16.73534340       10      -0.00863296      -0.00257332      -0.04179764
C       -1.16732070       2.16662909      16.73534340       10       0.00255533       0.00288187      -0.02548686
C        0.04474861       2.86647022      16.73534340       10       0.00253561      -0.00242203      -0.04274245
C       -2.37900284       4.26602265      16.73534340       10      -0.00179457       0.00116384      -0.04119924
C       -1.16684901       4.96575246      16.73534340       10       0.00014617      -0.00082670      -0.03197396
C       -3.59065758       6.36521927      16.73534340       10      -0.00543883       0.00348894      -0.04005333
C       -2.37857619       7.06492529      16.73534340       10      -0.00215293      -0.00247528      -0.03329607
C       -4.80324162       8.46451459      16.73534340       10       0.00435678       0.00158209      -0.02841115
C       -3.59100284       9.16414776      16.73534340       10       0.00029944      -0.00014361      -0.04455464
C        2.46919625       0.06750757      16.73534340       10      -0.00123793      -0.00086421      -0.01949427
C        3.68131526       0.76714539      16.73534340       10      -0.00692971       0.00001968      -0.03850023
C        1.25680265       2.16663288      16.73534340       10       0.00541238       0.00153381      -0.02010176
C        2.46884282       2.86647610      16.73534340       10      -0.00101825       0.00037761      -0.03921818
C        0.04506128       4.26584867      16.73534340       10      -0.00148355      -0.00030404      -0.03479278
C        1.25711139       4.96565224      16.73534340       10      -0.00325233       0.00307323      -0.02860220
C       -1.16663211       6.36514088      16.73534340       10      -0.00418056       0.00211631      -0.03622652
C        0.04534349       7.06481954      16.73534340       10      -0.00241236       0.00136049      -0.02627272
C       -2.37909788       8.46438627      16.73534340       10       0.00328046       0.00132898      -0.03618887
C       -1.16701106       9.16402501      16.73534340       10       0.00232130       0.00392011      -0.02694849
C        4.89327006       0.06746957      16.73534340       10      -0.00377808      -0.00158714      -0.04044574
C        6.10506210       0.76740822      16.73534340       10      -0.00027082      -0.00169178      -0.03157363
C        3.68082929       2.16671807      16.73534340       10       0.00431272       0.00024640      -0.03541450
C        4.89275756       2.86669932      16.73534340       10       0.00504184      -0.00015704      -0.02220478
C        2.46909554       4.26595473      16.73534340       10       0.00089960      -0.00303682      -0.04150874
C        3.68097432       4.96584057      16.73534340       10      -0.00101564       0.00286303      -0.03236337
C        1.25733301       6.36511261      16.73534340       10      -0.00509205      -0.00004951      -0.03627520
C        2.46911232       7.06495412      16.73534340       10      -0.00445216      -0.00038905      -0.03085159
C        0.04491808       8.46430467      16.73534340       10       0.00021297       0.00153431      -0.03541238
C        1.25662738       9.16426291      16.73534340       10       0.00371228       0.00146947      -0.02766567
C        7.31700593       0.06772268      16.73534340       10      -0.00248085      -0.00405513      -0.04274861
C        8.52903532       0.76730575      16.73534340       10      -0.00350280      -0.00144900      -0.03867748
C        6.10472363       2.16701359      16.73534340       10       0.00231300      -0.00147990      -0.03627611
C        7.31666786       2.86669765      16.73534340       10       0.00411892      -0.00227835      -0.02258797
C        4.89295690       4.26618731      16.73534340       10       0.00309468      -0.00326982      -0.03750890
C        6.10499689       4.96584455      16.73534340       10       0.00139344       0.00007351      -0.02349618
C        3.68119235       6.36526411      16.73534340       10       0.00093089      -0.00050644      -0.04200735
C        4.89317272       7.06502955      16.73534340       10      -0.00548744      -0.00168634      -0.03635432
C        2.46855389       8.46445793      16.73534340       10       0.00697947      -0.00016185      -0.03428268
C        3.68052558       9.16414157      16.73534340       10       0.00121890       0.00078184      -0.04351098
C        9.74105791       0.06751995      16.73534340       10      -0.00049888       0.00005642      -0.02227497
C       10.95314544       0.76718741      16.73534340       10      -0.00454980      -0.00171556      -0.04204374
C        8.52870316       2.16683805      16.73534340       10       0.00206780       0.00237440      -0.03805032
C        9.74068859       2.86660755      16.73534340       10       0.00532477      -0.00362547      -0.03601211
C        7.31696521       4.26614210      16.73534340       10      -0.00020533       0.00068321      -0.03997019
C        8.52909097       4.96585984      16.73534340       10       0.00172999      -0.00129152      -0.03191947
C        6.10527656       6.36530976      16.73534340       10      -0.00265952       0.00221260      -0.03927915
C        7.31732746       7.06504499      16.73534340       10      -0.00264956      -0.00301921      -0.03360006
C        4.89268850       8.46450604      16.73534340       10       0.00859019       0.00244061      -0.02608108
C        6.10474270       9.16430054      16.73534340       10       0.00205156      -0.00034949      -0.04099225
