130
Lattice="12.12 0.0 0.0 -6.06 10.496227893867395 0.0 0.0 0.0 40.0" Properties=species:S:1:pos:R:3:tags:I:1:forces:R:3 energy=-1200.4201508721537 stress="0.0028149155701948318 -4.573291353177115e-08 -3.908685099376671e-07 -4.573291353177115e-08 0.002814968334428903 -6.558751622766065e-07 -3.908685099376671e-07 -6.558751622766065e-07 0.002796643237432549" pbc="T T F"
C        0.00013733       0.00021304       9.98771689        2       0.00000446       0.00001590       0.00297515
Ti      -0.00003486       1.74984722      11.30462307        0       0.00006218      -0.00042567       0.00133663
Ti       1.51466894       0.87451596       8.69631542        0      -0.00005167      -0.00021728       0.00187376
O        0.00001540       1.74960315       7.77431850        1      -0.00010498       0.00056964      -0.00154453
O        1.51603319       0.87521126      12.23159545        3      -0.00082790      -0.00050621      -0.05270282
C       -1.51453271       2.62334200       9.98829733        2       0.00013610      -0.00033210       0.00426561
Ti      -1.51495958       4.37212924      11.30726123        0       0.00028838      -0.00146262       0.00207649
Ti      -0.00000457       3.49892259       8.69678847        0      -0.00019587       0.00080673       0.00306933
O       -1.51497986       4.37355965       7.77525147        1       0.00012117       0.00051258      -0.00022238
O       -0.00039545       3.49916446      12.23159545        3       0.00013638      -0.00129964      -0.04476605
C       -3.02936872       5.24843562       9.98876002        2      -0.00069091      -0.00062772       0.00492977
Ti      -3.03101918       6.99815415      11.30749137        0      -0.00062347       0.00016411       0.00095239
Ti      -1.51492511       6.12287128       8.69805927        0      -0.00036965      -0.00000094       0.00598390
O       -3.02988637       6.99744126       7.77526434        1       0.00055122      -0.00021967      -0.00002519
O       -1.51764096       6.12126669      12.23159545        3      -0.00067641      -0.00066104      -0.05058363
C       -4.54526449       7.87297150       9.98826114        2      -0.00048376       0.00013370       0.00424975
Ti      -4.54477814       9.62142541      11.30474933        0      -0.00008531       0.00013078       0.00063532
Ti      -3.02980582       8.74674593       8.69689931        0       0.00047918      -0.00065005       0.00368857
O       -4.54474986       9.62144037       7.77438407        1       0.00058234      -0.00029339      -0.00153992
O       -3.03020357       8.74612191      12.23159545        3      -0.00086352       0.00069421      -0.04494129
C        3.02898888      -0.00000950       9.98854994        2      -0.00016652       0.00051633       0.00447734
Ti       3.02912266       1.74864903      11.30607889        0      -0.00033898      -0.00012646       0.00286110
Ti       4.54495583       0.87469053       8.69716041        0       0.00032253      -0.00002737       0.00349559
O        3.03003092       1.74935135       7.77497804        1      -0.00000853      -0.00017092      -0.00103979
O        4.54663076       0.87744802      12.23159545        3      -0.00075077       0.00031544      -0.05243788
C        1.51452170       2.62321749       9.98841314        2       0.00020461      -0.00027142       0.00441895
Ti       1.51523912       4.37195273      11.30725266        0       0.00022722      -0.00107886       0.00317634
Ti       3.02992568       3.49867330       8.69715046        0       0.00028942       0.00011456       0.00287822
O        1.51495673       4.37352563       7.77522495        1      -0.00011501       0.00067291       0.00003144
O        3.03311265       3.49886145      12.23159545        3       0.00018227      -0.00084637      -0.05307231
C        0.00006083       5.24761214       9.98923844        2       0.00007197      -0.00068028       0.00565627
Ti      -0.00040347       6.99682535      11.31190097        0      -0.00031255      -0.00061027       0.00627405
Ti       1.51494396       6.12292721       8.69816406        0      -0.00006431       0.00019552       0.00575745
O       -0.00003986       6.99744590       7.77564069        1       0.00005087      -0.00004189       0.00276345
O        1.51675994       6.12148335      12.23159545        3      -0.00028400      -0.00040160      -0.05153802
C       -1.51517920       7.87244020       9.98927889        2      -0.00037691      -0.00003687       0.00560148
Ti      -1.51607255       9.62255284      11.30784362        0      -0.00059908       0.00065548       0.00204425
Ti       0.00005521       8.74668388       8.69827016        0      -0.00006267      -0.00008254       0.00624626
O       -1.51492513       9.62150348       7.77530343        1       0.00052787      -0.00043063       0.00040673
O       -0.00021636       8.74832451      12.23159545        3      -0.00037659      -0.00019350      -0.05237209
C        6.05991612      -0.00082706       9.98890049        2      -0.00008795       0.00070072       0.00530542
Ti       6.05982753       1.74911381      11.30884644        0      -0.00015488      -0.00008540       0.00214083
Ti       7.57502467       0.87468519       8.69747558        0      -0.00021495      -0.00005381       0.00389620
O        6.06000316       1.74919805       7.77549397        1       0.00002629      -0.00048798      -0.00059439
O        7.57369830       0.87732038      12.23159545        3       0.00035242       0.00033055      -0.05405693
C        4.54463295       2.62380473       9.98794432        2      -0.00001382       0.00000403       0.00399475
Ti       4.54446445       4.37332081      11.30969658        0      -0.00040935       0.00009158       0.00269830
Ti       6.06000400       3.49874509       8.69827049        0       0.00007845       0.00010570       0.00506124
O        4.54485216       4.37349012       7.77557880        1      -0.00032565       0.00018295      -0.00067340
O        6.06027826       3.49913694      12.23159545        3       0.00004514       0.00019949      -0.07888519
C        3.02927692       5.24840746       9.98876107        2       0.00054554      -0.00081334       0.00533833
Ti       3.03098431       6.99778049      11.30768670        0       0.00013499       0.00018972       0.00264242
Ti       4.54502146       6.12282062       8.69753540        0       0.00009627       0.00005396       0.00403404
O        3.02992664       6.99743194       7.77527199        1      -0.00066927      -0.00019233       0.00026377
O        4.54661068       6.12063966      12.23159545        3       0.00028649       0.00002854      -0.05707265
C        1.51499730       7.87224530       9.98927900        2       0.00019871      -0.00019158       0.00586120
Ti       1.51581798       9.62235786      11.30811925        0       0.00061195       0.00017792       0.00246334
Ti       3.02976274       8.74672642       8.69706749        0      -0.00050395      -0.00041998       0.00395284
O        1.51490719       9.62152896       7.77535475        1      -0.00046650      -0.00044041       0.00044261
O        3.03012275       8.74653051      12.23159545        3       0.00064592       0.00025862      -0.04540092
C        9.09096280      -0.00014348       9.98854738        2       0.00008124       0.00010340       0.00448816
Ti       9.09091927       1.74849951      11.30723368        0       0.00017021      -0.00063230       0.00099728
Ti      10.60534557       0.87447181       8.69634828        0      -0.00009397      -0.00010956       0.00210565
O        9.08994692       1.74932092       7.77518028        1      -0.00001065      -0.00031003      -0.00092495
O       10.60343037       0.87540392      12.23159545        3       0.00120325      -0.00056415      -0.04929566
C        7.57531538       2.62378259       9.98811164        2      -0.00005837      -0.00003408       0.00376461
Ti       7.57575006       4.37366804      11.31052535        0      -0.00013827      -0.00023402       0.00255620
Ti       9.09004717       3.49862933       8.69736376        0      -0.00024878       0.00014834       0.00358683
O        7.57513908       4.37349016       7.77563459        1       0.00031465       0.00011438      -0.00049260
O        9.08732033       3.49880844      12.23159545        3      -0.00025582      -0.00112997      -0.05538528
C        6.05997554       5.24849593       9.98810842        2      -0.00018223      -0.00028710       0.00381981
Ti       6.05987065       6.99878096      11.30773300        0      -0.00047160      -0.00001463       0.00201176
Ti       7.57491048       6.12284986       8.69748110        0       0.00005420      -0.00010231       0.00426788
O        6.05996437       6.99749725       7.77520812        1      -0.00013282       0.00009770      -0.00078270
O        7.57358976       6.12072540      12.23159545        3      -0.00075823       0.00004995      -0.05749781
C        4.54526920       7.87303892       9.98839453        2      -0.00000407      -0.00009006       0.00443961
Ti       4.54484294       9.62139205      11.30485834        0       0.00020069       0.00042338       0.00055485
Ti       6.05998980       8.74728582       8.69626332        0       0.00001173      -0.00011315       0.00226809
O        4.54474474       9.62140262       7.77442726        1      -0.00083623      -0.00030793      -0.00132998
O        6.05993164       8.74464185      12.23159545        3       0.00016645       0.00105117      -0.04721520
C        0.04488378       0.06760434      15.88422703       10       0.00439857       0.00122344       0.03443012
C        1.25689313       0.76728427      15.88422703       10       0.00284744       0.00308932       0.02814286
C       -1.16666386       2.16681238      15.88422703       10       0.00220213       0.00033679       0.04070116
C        0.04494667       2.86614127      15.88422703       10      -0.00062317       0.00181558       0.02055674
C       -2.37946563       4.26555062      15.88422703       10       0.00258535      -0.00185401       0.00538641
C       -1.16688480       4.96552707      15.88422703       10       0.00121589       0.00122070       0.01848983
C       -3.59188927       6.36523469      15.88422703       10       0.00400425      -0.00168242       0.00285000
C       -2.37910265       7.06533375      15.88422703       10       0.00126182      -0.00120052       0.01824461
C       -4.80282676       8.46490297      15.88422703       10       0.00088295      -0.00177845       0.03798571
C       -3.59138705       9.16436620      15.88422703       10       0.00049920      -0.00108950       0.02046024
C        2.46874269       0.06720317      15.88422703       10       0.00347066       0.00342342       0.04175882
C        3.68067735       0.76741378      15.88422703       10       0.00297455       0.00155824       0.01385228
C        1.25667669       2.16675208      15.88422703       10       0.00016688       0.00280275       0.04244897
C        2.46901351       2.86639063      15.88422703       10       0.00011824       0.00039761       0.01334907
C        0.04493183       4.26569077      15.88422703       10       0.00063642       0.00133709       0.02322587
C        1.25688576       4.96538430      15.88422703       10       0.00031091       0.00018941       0.01816609
C       -1.16736933       6.36501258      15.88422703       10       0.00079081       0.00227221       0.01301707
C        0.04509497       7.06518840      15.88422703       10      -0.00015777      -0.00099520       0.02528735
C       -2.37938998       8.46468544      15.88422703       10       0.00060840      -0.00028903       0.02235275
C       -1.16743610       9.16447679      15.88422703       10       0.00032753      -0.00214538       0.01792560
C        4.89253938       0.06816907      15.88422703       10       0.00146051       0.00258436       0.01141454
C        6.10494766       0.76689761      15.88422703       10       0.00118231       0.00131276       0.00939130
C        3.68049024       2.16657891      15.88422703       10      -0.00088863       0.00008847       0.00881546
C        4.89279457       2.86642362      15.88422703       10      -0.00014413      -0.00125417      -0.01004244
C        2.46937107       4.26549492      15.88422703       10       0.00012922       0.00020281       0.01056417
C        3.68077473       4.96595735      15.88422703       10      -0.00008378       0.00048493       0.00589640
C        1.25738591       6.36495139      15.88422703       10       0.00004274       0.00147567       0.01673964
C        2.46917483       7.06539857      15.88422703       10       0.00103311       0.00015842       0.01727212
C        0.04503468       8.46514242      15.88422703       10      -0.00096035      -0.00106357       0.01890842
C        1.25758875       9.16443001      15.88422703       10      -0.00120869      -0.00226931       0.01761516
C        7.31741423       0.06829173      15.88422703       10      -0.00010953       0.00250942       0.00877350
C        8.52923821       0.76746270      15.88422703       10      -0.00059582       0.00072803       0.01398669
C        6.10498925       2.16729304      15.88422703       10       0.00005292       0.00112642      -0.02465621
C        7.31726504       2.86643994      15.88422703       10      -0.00066602      -0.00223439      -0.01482213
C        4.89341870       4.26580718      15.88422703       10      -0.00042225       0.00018550      -0.02686977
C        6.10498412       4.96620828      15.88422703       10      -0.00040615      -0.00126023      -0.01899594
C        3.68190843       6.36524456      15.88422703       10       0.00026757       0.00020256       0.00555222
C        4.89314625       7.06533662      15.88422703       10       0.00043185      -0.00229287       0.01288547
C        2.46976391       8.46489307      15.88422703       10      -0.00274195      -0.00124368       0.02263950
C        3.68173159       9.16465070      15.88422703       10      -0.00345626      -0.00291373       0.02165346
C        9.74121744       0.06746270      15.88422703       10      -0.00046142       0.00156335       0.03824794
C       10.95300220       0.76747797      15.88422703       10      -0.00074182       0.00221904       0.02798116
C        8.52961671       2.16672915      15.88422703       10      -0.00109555       0.00137495       0.00013087
C        9.74113437       2.86651632      15.88422703       10      -0.00333750       0.00185548       0.01106491
C        7.31667074       4.26591022      15.88422703       10      -0.00110080      -0.00110655      -0.02918461
C        8.52925851       4.96591957      15.88422703       10      -0.00236065       0.00206761       0.00022695
C        6.10508835       6.36593467      15.88422703       10       0.00139196      -0.00147971      -0.00729599
C        7.31701690       7.06516837      15.88422703       10      -0.00182273       0.00012995       0.01045146
C        4.89322548       8.46496316      15.88422703       10      -0.00271798      -0.00256512       0.03649058
C        6.10530719       9.16427999      15.88422703       10      -0.00418732      -0.00071898       0.02784553
