130
Lattice="12.12 0.0 0.0 -6.06 10.496227893867395 0.0 0.0 0.0 40.0" Properties=species:S:1:pos:R:3:tags:I:1:forces:R:3 energy=-1202.2570133966778 stress="0.002891015450063575 2.5295812004166826e-08 -1.1789079817120348e-07 2.5295812004166826e-08 0.0028911459033362065 -1.641802051746838e-07 -1.1789079817120348e-07 -1.641802051746838e-07 0.0026498949810180436" pbc="T T F"
C       -0.00000722      -0.00003367      10.00611789        2       0.00012793       0.00024093      -0.00503128
Ti      -0.00009576       1.74930929      11.30601380        0      -0.00043549      -0.00145356       0.00673368
Ti       1.51503657       0.87470659       8.71792351        0      -0.00028296      -0.00036363      -0.00179845
O        0.00003928       1.74934257       7.78034489        1       0.00001920       0.00000694       0.00157731
O        1.51534349       0.87489175      12.23008024        3       0.00085004       0.00105162      -0.06382572
C       -1.51496042       2.62395129      10.00591267        2       0.00021295       0.00057860      -0.00460656
Ti      -1.51524228       4.37306717      11.30617878        0      -0.00054950      -0.00023185       0.00623053
Ti      -0.00002243       3.49869271       8.71817151        0      -0.00031608      -0.00035543      -0.00128735
O       -1.51485209       4.37350307       7.78042374        1      -0.00002599      -0.00011693       0.00133902
O       -0.00030103       3.49912590      12.23008024        3       0.00045757       0.00104614      -0.06282251
C       -3.02998643       5.24810242      10.00588247        2       0.00015681      -0.00005088      -0.00431519
Ti      -3.03036546       6.99732345      11.30610315        0      -0.00059336       0.00092985       0.00666130
Ti      -1.51502088       6.12276535       8.71813099        0      -0.00040626      -0.00007759      -0.00100341
O       -3.02982958       6.99756300       7.78040453        1      -0.00001878      -0.00001975       0.00144637
O       -1.51583482       6.12233315      12.23008024        3       0.00054500      -0.00027145      -0.05915442
C       -4.54503461       7.87225781      10.00583313        2       0.00016842      -0.00038639      -0.00480772
Ti      -4.54520227       9.62145693      11.30589903        0      -0.00051775      -0.00030441       0.00680958
Ti      -3.03005390       8.74684055       8.71816161        0      -0.00030198      -0.00005636      -0.00159104
O       -4.54496314       9.62159833       7.78030304        1      -0.00003445       0.00000411       0.00168950
O       -3.03008455       8.74628117      12.23008024        3       0.00076069      -0.00026694      -0.06335231
C        3.02989785      -0.00006537      10.00609953        2       0.00046868       0.00033938      -0.00446420
Ti       3.03008320       1.74946969      11.30513877        0      -0.00117971      -0.00188497       0.00613850
Ti       4.54513987       0.87477418       8.71791604        0       0.00002377      -0.00007364      -0.00124135
O        3.02990748       1.74927436       7.78022775        1      -0.00004616       0.00005445       0.00137166
O        4.54557002       0.87509221      12.23008024        3       0.00047837       0.00066851      -0.06899780
C        1.51492125       2.62394516      10.00601371        2       0.00040933       0.00085623      -0.00381539
Ti       1.51529239       4.37304543      11.30626390        0      -0.00116346      -0.00059395       0.00533284
Ti       3.03018864       3.49882913       8.71787472        0       0.00012661      -0.00024860      -0.00089479
O        1.51487012       4.37349119       7.78048513        1       0.00005264      -0.00010922       0.00091005
O        3.03053830       3.49909224      12.23008024        3       0.00051740       0.00073694      -0.06986888
C       -0.00002920       5.24804342      10.00633682        2       0.00054093       0.00020672      -0.00349029
Ti      -0.00009124       6.99725467      11.30724662        0      -0.00103323       0.00055914       0.00537904
Ti       1.51499159       6.12276088       8.71817982        0       0.00001717       0.00012350      -0.00084380
O        0.00000930       6.99749839       7.78074238        1      -0.00002458      -0.00000898       0.00092981
O        1.51548711       6.12257762      12.23008024        3       0.00038477      -0.00042818      -0.05974027
C       -1.51504322       7.87218754      10.00641659        2       0.00060348      -0.00032174      -0.00403640
Ti      -1.51517454       9.62196597      11.30638047        0      -0.00123728      -0.00077993       0.00625540
Ti      -0.00001521       8.74683676       8.71831094        0      -0.00003713       0.00026219      -0.00136515
O       -1.51497824       9.62140188       7.78052426        1      -0.00001082       0.00003047       0.00134371
O        0.00007566       8.74711606      12.23008024        3       0.00013691      -0.00042011      -0.05929395
C        6.06001067      -0.00010547      10.00611550        2      -0.00013971      -0.00000057      -0.00414159
Ti       6.06006900       1.74984382      11.30669869        0       0.00061998      -0.00067613       0.00652708
Ti       7.57489194       0.87474934       8.71792781        0       0.00021974       0.00013073      -0.00162179
O        6.05997111       1.74918841       7.78030040        1       0.00001172       0.00008742       0.00151108
O        7.57472188       0.87495708      12.23008024        3      -0.00069110       0.00005573      -0.07069471
C        4.54489486       2.62397991      10.00566249        2      -0.00014752       0.00037344      -0.00366916
Ti       4.54525093       4.37341647      11.30706315        0       0.00064992       0.00052442       0.00585156
Ti       6.06001210       3.49876937       8.71790938        0       0.00025557      -0.00001162      -0.00150758
O        4.54486826       4.37344341       7.78028615        1      -0.00002782      -0.00004004       0.00117814
O        6.06008984       3.49883032      12.23008024        3      -0.00066476       0.00011215      -0.06988550
C        3.02994584       5.24814562      10.00595023        2      -0.00022221      -0.00026211      -0.00321835
Ti       3.03028678       6.99742109      11.30619947        0       0.00063772       0.00155006       0.00587783
Ti       4.54501591       6.12266428       8.71781838        0       0.00036753       0.00016825      -0.00101869
O        3.02980045       6.99752850       7.78041063        1       0.00008660      -0.00002351       0.00119194
O        4.54504839       6.12255561      12.23008024        3      -0.00070643      -0.00113187      -0.07530863
C        1.51500484       7.87218595      10.00643912        2      -0.00022682      -0.00066236      -0.00370603
Ti       1.51522591       9.62182227      11.30642077        0       0.00055706       0.00026545       0.00642235
Ti       3.03005131       8.74686269       8.71801044        0       0.00025001       0.00029442      -0.00146240
O        1.51493439       9.62137257       7.78047717        1       0.00005192       0.00005903       0.00148994
O        3.03023483       8.74673145      12.23008024        3      -0.00065309      -0.00094284      -0.06437688
C        9.09011082      -0.00005427      10.00594908        2      -0.00050774      -0.00022437      -0.00485084
Ti       9.08983406       1.74947128      11.30543174        0       0.00092232      -0.00062783       0.00746989
Ti      10.60493144       0.87474836       8.71785502        0      -0.00003009      -0.00015211      -0.00204986
O        9.09008427       1.74926930       7.78016502        1      -0.00008372      -0.00000118       0.00183205
O       10.60420160       0.87512168      12.23008024        3      -0.00061023       0.00043836      -0.06453759
C        7.57509629       2.62397589      10.00567109        2      -0.00046719       0.00018968      -0.00435890
Ti       7.57491484       4.37341571      11.30744002        0       0.00077330       0.00060634       0.00667544
Ti       9.08979174       3.49882415       8.71788354        0      -0.00012409      -0.00018173      -0.00147604
O        7.57508340       4.37344935       7.78027853        1      -0.00008413      -0.00013129       0.00152488
O        9.08955920       3.49902103      12.23008024        3      -0.00022134       0.00050028      -0.07598107
C        6.05999301       5.24819937      10.00564536        2      -0.00047643      -0.00045606      -0.00410939
Ti       6.05995517       6.99708798      11.30560385        0       0.00097883       0.00177794       0.00681295
Ti       7.57496866       6.12260759       8.71782236        0      -0.00007649       0.00004876      -0.00124915
O        6.05999138       6.99758090       7.78010753        1      -0.00011676      -0.00004140       0.00165053
O        7.57499707       6.12237471      12.23008024        3      -0.00020217      -0.00087480      -0.07845973
C        4.54502226       7.87229356      10.00579358        2      -0.00056151      -0.00079728      -0.00448673
Ti       4.54526228       9.62160471      11.30540398        0       0.00091206       0.00032422       0.00740153
Ti       6.06002087       8.74670390       8.71780272        0       0.00001419       0.00015382      -0.00179409
O        4.54499835       9.62157209       7.78019341        1      -0.00005856      -0.00006848       0.00184011
O        6.05995640       8.74560189      12.23008024        3      -0.00023868      -0.00112479      -0.06383437
C        0.04512742       0.06766615      16.02481708       10      -0.00361888      -0.00250172       0.00496722
C        1.25696502       0.76731717      16.02481708       10       0.00158357       0.00086333       0.01822100
C       -1.16700082       2.16691029      16.02481708       10       0.00066132      -0.00559397       0.01982225
C        0.04494291       2.86661548      16.02481708       10       0.00054448       0.00137599       0.02372342
C       -2.37882758       4.26622397      16.02481708       10      -0.00058657      -0.00337041       0.01934715
C       -1.16677409       4.96591620      16.02481708       10       0.00120799       0.00106129       0.03267903
C       -3.59067955       6.36542844      16.02481708       10      -0.00165522      -0.00335652       0.02165957
C       -2.37862164       7.06508611      16.02481708       10      -0.00121620       0.00233781       0.03439778
C       -4.80301692       8.46463914      16.02481708       10      -0.00149388      -0.00111990       0.02096930
C       -3.59105118       9.16432723      16.02481708       10       0.00460294      -0.00162757       0.02393445
C        2.46904924       0.06752552      16.02481708       10      -0.00231891       0.00198567       0.02049607
C        3.68094383       0.76710587      16.02481708       10      -0.00296746      -0.00329949       0.01363242
C        1.25684339       2.16688855      16.02481708       10       0.00095874      -0.00372904       0.01938086
C        2.46861386       2.86653413      16.02481708       10      -0.00126766       0.00151008       0.01235055
C        0.04504155       4.26611219      16.02481708       10      -0.00129991      -0.00193487       0.00975950
C        1.25690745       4.96583479      16.02481708       10      -0.00088315       0.00185111       0.03757675
C       -1.16657081       6.36540610      16.02481708       10      -0.00640987      -0.00192199       0.01135756
C        0.04523632       7.06504566      16.02481708       10      -0.00208621       0.00077934       0.06269484
C       -2.37898886       8.46451386      16.02481708       10      -0.00135715       0.00162181       0.00988804
C       -1.16706049       9.16419549      16.02481708       10       0.00099945      -0.00582789       0.04205969
C        4.89310824       0.06733160      16.02481708       10      -0.00200593       0.00589497       0.01477506
C        6.10511509       0.76699624      16.02481708       10      -0.00255943      -0.00366366       0.02321271
C        3.68066139       2.16672993      16.02481708       10       0.00229568      -0.00060563       0.03588600
C        4.89255471       2.86646373      16.02481708       10       0.00151348      -0.00194647      -0.00238651
C        2.46884557       4.26615186      16.02481708       10       0.00257809       0.00036344       0.01586324
C        3.68071067       4.96607811      16.02481708       10      -0.00236602      -0.00022691       0.01745797
C        1.25705704       6.36530807      16.02481708       10      -0.00134585       0.00191291       0.00910241
C        2.46896673       7.06512326      16.02481708       10      -0.00258824       0.00063571       0.03839405
C        0.04495436       8.46438028      16.02481708       10       0.00274077       0.00394022       0.00702714
C        1.25693310       9.16421268      16.02481708       10       0.00193905      -0.00565693       0.04221390
C        7.31711681       0.06732468      16.02481708       10      -0.00090850       0.00582694       0.01551646
C        8.52924704       0.76710747      16.02481708       10       0.00133652      -0.00138526       0.01314109
C        6.10477693       2.16652392      16.02481708       10       0.00185441      -0.00070776       0.03647426
C        7.31695072       2.86636053      16.02481708       10       0.00642782       0.00198911      -0.00749374
C        4.89267575       4.26621221      16.02481708       10       0.00078931      -0.00159550       0.03851075
C        6.10491775       4.96596304      16.02481708       10       0.00161504       0.00199423      -0.01256989
C        3.68090678       6.36549748      16.02481708       10       0.00132270      -0.00139039       0.01894106
C        4.89297612       7.06534400      16.02481708       10      -0.00075500       0.00386817       0.01247781
C        2.46888031       8.46452111      16.02481708       10       0.00320748       0.00321572       0.00995737
C        3.68090484       9.16433989      16.02481708       10       0.00233645      -0.00187301       0.02642791
C        9.74119423       0.06755163      16.02481708       10      -0.00451637       0.00143016       0.02014849
C       10.95321684       0.76730608      16.02481708       10       0.00159180       0.00138385       0.01930792
C        8.52909299       2.16677997      16.02481708       10       0.00121320      -0.00261462       0.03424806
C        9.74122836       2.86652451      16.02481708       10       0.00146561       0.00351423       0.01104029
C        7.31710617       4.26610709      16.02481708       10      -0.00130711      -0.00103750       0.04065828
C        8.52925431       4.96593233      16.02481708       10       0.00062065       0.00327939       0.01204508
C        6.10511394       6.36555948      16.02481708       10      -0.00066631      -0.00104166       0.03389243
C        7.31723855       7.06530411      16.02481708       10      -0.00034763       0.00556635       0.01155979
C        4.89296944       8.46467393      16.02481708       10      -0.00155026      -0.00078795       0.02000071
C        6.10494019       9.16452639      16.02481708       10       0.00385756       0.00251542       0.01929414
