132
Lattice="12.12 0.0 0.0 -6.06 10.496227893867395 0.0 0.0 0.0 40.0" Properties=species:S:1:pos:R:3:tags:I:1:forces:R:3 energy=-1209.9317215418707 stress="0.0027930602313207004 4.412703566679328e-06 -1.6872183579117375e-06 4.412703566679328e-06 0.002796938927392574 8.872499845229378e-07 -1.6872183579117375e-06 8.872499845229378e-07 0.002378141842523236" pbc="T T F"
C       -0.16368785       0.09528341      10.00920383        2       0.00161271      -0.00186007       0.00047256
Ti      -0.16979010       1.84742963      11.32741912        0       0.00097075       0.00018013      -0.00286212
Ti       1.35128626       0.97148542       8.70579802        0      -0.00019103      -0.00039320      -0.00574980
O       -0.16424375       1.84600654       7.77971660        1      -0.00031875       0.00050223      -0.00028757
O        1.35058412       0.97234105      12.23159545        3      -0.00104243       0.00093172       0.00413910
C       -1.67813775       2.71996126      10.01679196        2      -0.00113357       0.00057538      -0.00333236
Ti      -1.67813085       4.46588605      11.29997385        0       0.00199346       0.00265382       0.00202018
Ti      -0.16046192       3.59612894       8.69762558        0      -0.00294648      -0.00031188      -0.00213526
O       -1.67756097       4.46726483       7.77604963        1      -0.00133324       0.00197107      -0.00205876
O       -0.16053389       3.60174554      12.23159545        3       0.00142034      -0.00009763      -0.09915066
C       -3.19483894       5.34410236      10.00346906        2      -0.00001513       0.00233442       0.00075283
Ti      -3.19342276       7.08962173      11.31206057        0      -0.00068888       0.00215983       0.00180856
Ti      -1.67740967       6.21958951       8.69720197        0       0.00167039      -0.00050763      -0.00335094
O       -3.19265377       7.09431100       7.77243141        1      -0.00105995      -0.00359812       0.00508320
O       -1.67793035       6.21545444      12.23159545        3      -0.00127050      -0.00024746      -0.02223580
C       -4.70759140       7.96695311      10.00444357        2       0.00143300       0.00097587       0.00444935
Ti      -4.70849093       9.71754050      11.31876282        0       0.00058281       0.00121013      -0.00027777
Ti      -3.19357365       8.84353908       8.69743087        0       0.00024283      -0.00206347      -0.00146502
O       -4.70881764       9.71967092       7.77665812        1       0.00089137      -0.00032728       0.00298504
O       -3.19241197       8.84061870      12.23159545        3      -0.00059603       0.00023493      -0.00962178
C        2.86841891       0.09534937      10.00642688        2      -0.00118833       0.00088752       0.00216131
Ti       2.86749786       1.84622119      11.31478431        0      -0.00065639      -0.00113240       0.00085726
Ti       4.38074989       0.97070975       8.69639333        0       0.00210212       0.00003631      -0.00198389
O        2.86413332       1.84477034       7.77510901        1       0.00143813      -0.00076676       0.00255360
O        4.38511570       0.97290975      12.23159545        3       0.00071498       0.00038034      -0.02116566
C        1.35259834       2.72171621      10.00722834        2       0.00269298      -0.00049962       0.00035065
Ti       1.35200643       4.47019194      11.31621196        0       0.00240809      -0.00138870      -0.00012902
Ti       2.86627154       3.59372004       8.70029184        0      -0.00051613       0.00138865      -0.00787676
O        1.35054346       4.46895478       7.77462478        1      -0.00020536       0.00042975       0.00097816
O        2.87045392       3.59445303      12.23159545        3      -0.00052876       0.00393645       0.00080655
C       -0.16064899       5.34676055      10.00330318        2       0.00096005      -0.00063689       0.00123498
Ti      -0.16673380       7.09294740      11.31391612        0       0.00059975      -0.00056278       0.00111276
Ti       1.35133463       6.22039842       8.69733181        0       0.00050405      -0.00037704      -0.00459448
O       -0.16375179       7.09378283       7.77160803        1      -0.00118237       0.00002143       0.00369769
O        1.35167011       6.22185859      12.23159545        3       0.00248491      -0.00324499       0.01093587
C       -1.67752250       7.96827860      10.00370129        2      -0.00192381       0.00204271       0.00489855
Ti      -1.67725083       9.71930037      11.31099634        0      -0.00311879       0.00074928       0.00040680
Ti      -0.16359504       8.84324640       8.69688223        0      -0.00082426       0.00134920       0.00024129
O       -1.67940892       9.71778621       7.77217217        1       0.00081720      -0.00028739      -0.00040717
O       -0.16203739       8.84490398      12.23159545        3      -0.00064940      -0.00024429      -0.01725834
C        5.89676248       0.09673433      10.00202195        2      -0.00230896      -0.00070971       0.00468222
Ti       5.90012354       1.84825874      11.30898726        0      -0.00016880       0.00008602       0.00195088
Ti       7.41058776       0.97069219       8.69436990        0       0.00044425      -0.00242215      -0.00330823
O        5.89598673       1.84515190       7.77075397        1       0.00172149       0.00253395       0.00425781
O        7.41240577       0.97266998      12.23159545        3       0.00070956       0.00043179       0.00744193
C        4.38222181       2.72110081      10.00259186        2       0.00103448      -0.00127520       0.00310441
Ti       4.38512014       4.46847173      11.31060464        0       0.00106756       0.00206853       0.00026779
Ti       5.89317679       3.59666881       8.69153232        0       0.00176289      -0.00044505      -0.00065735
O        4.37890296       4.46933816       7.76934154        1      -0.00084071       0.00238816       0.00236195
O        5.89786152       3.59608405      12.23159545        3      -0.00077739       0.00112036       0.00751821
C        2.86697269       5.34575663      10.00381873        2       0.00072647      -0.00095877       0.00324617
Ti       2.86660492       7.09465779      11.31116671        0       0.00059498      -0.00067827       0.00097533
Ti       4.37958373       6.22025357       8.69410963        0       0.00244466      -0.00173594      -0.00352621
O        2.86476633       7.09525997       7.76946075        1       0.00121173      -0.00242087       0.00153577
O        4.38370755       6.21782705      12.23159545        3      -0.00045642      -0.00042178      -0.01162104
C        1.35209611       7.96889221      10.00345009        2      -0.00286137       0.00031622       0.00146517
Ti       1.35184689       9.72300962      11.31462694        0       0.00001316      -0.00120834       0.00133286
Ti       2.86580933       8.84217159       8.69655762        0      -0.00031070      -0.00040662      -0.00379923
O        1.35186659       9.71798033       7.77178926        1      -0.00032598       0.00088336       0.00274886
O        2.86513585       8.84479236      12.23159545        3       0.00329886      -0.00056525      -0.00047570
C        8.92545124       0.09436162      10.00411803        2       0.00074139      -0.00131932       0.00087850
Ti       8.93069976       1.84207261      11.29663660        0      -0.00094831      -0.00083710       0.00287206
Ti      10.44209176       0.96883037       8.69907910        0      -0.00047375       0.00214439      -0.00353024
O        8.92930943       1.84639449       7.77610863        1      -0.00261269      -0.00081424      -0.00305109
O       10.43725949       0.96451225      12.23159545        3       0.00028804       0.00056703      -0.13172145
C        7.40976135       2.72114994      10.00250913        2      -0.00090992      -0.00165487       0.00040878
Ti       7.41172142       4.46734062      11.29630816        0      -0.00017813       0.00221333       0.00483636
Ti       8.92534196       3.59616821       8.69480130        0       0.00496986      -0.00338524      -0.00091228
O        7.41262178       4.46953894       7.77106674        1       0.00213605      -0.00165377       0.00668554
O        8.92049497       3.59398946      12.23159545        3      -0.00229911       0.00282107       0.13728517
C        5.89194811       5.34638733       9.99786629        2      -0.00009976       0.00070456       0.00131218
Ti       5.89945602       7.08971303      11.31269672        0      -0.00350067       0.00012774      -0.00022323
Ti       7.40950160       6.22103773       8.69387133        0       0.00123112      -0.00200587      -0.00144409
O        5.89610214       7.09632073       7.77060629        1      -0.00023697      -0.00064872       0.00186412
O        7.41135721       6.21508313      12.23159545        3      -0.00267120       0.00184955      -0.01284959
C        4.38062161       7.96629288      10.00347990        2       0.00155648      -0.00025340       0.00192537
Ti       4.38224786       9.71761326      11.31614510        0       0.00051582      -0.00056515       0.00059149
Ti       5.89755685       8.84330473       8.70170164        0      -0.00154750       0.00067033      -0.00697060
O        4.38261655       9.71898310       7.77605233        1      -0.00113490       0.00122627       0.00082818
O        5.89693668       8.83977071      12.23159545        3      -0.00469793       0.00055767      -0.00298855
C        0.31969272      -0.09447863      16.56882215       10      -0.00031911      -0.00304694       0.01162335
C        1.52636253       0.60907877      16.57721038       10       0.00609264       0.00072429       0.01790435
C       -0.86965738       1.99159692      16.54445148       10       0.00005215      -0.00262209       0.66437206
C        0.31629091       2.70673784      16.55209022       10       0.00227199       0.00036777       0.03438752
C       -2.11359710       4.14518704      16.54444593       10      -0.00082491       0.00490781       0.37579625
C       -0.90184049       4.81480621      16.55208766       10       0.00379230       0.00341141       0.03696190
C       -3.32579876       6.22090879      16.56882160       10      -0.00111926       0.00300794       0.00334291
C       -2.11241871       6.91223880      16.57721018       10      -0.00015103      -0.00347331       0.01598097
C       -4.53607999       8.30868100      16.56692921       10      -0.00560426      -0.00116709       0.02120346
C       -3.32412344       9.00796838      16.57821887       10       0.00283452      -0.00237105       0.01710070
C        2.73808196      -0.09066113      16.57924389       10       0.00230959      -0.00221965       0.03119136
C        3.94767259       0.61007800      16.57821878       10      -0.00164110       0.00604075       0.00870632
C        1.53241002       2.00498104      16.56882236       10       0.00240381      -0.00067355       0.01000196
C        2.73769153       2.71026407      16.55976223       10       0.00027433       0.00145351       0.00556612
C        0.31478607       4.11122355      16.52596234       10       0.00441551       0.00236236      -0.00763193
C        1.52181369       4.80887411      16.53763229       10       0.00426575       0.00091975       0.00379182
C       -0.90159238       6.21948255      16.56882160       10      -0.00123824       0.00156741       0.00500791
C        0.31213988       6.91060920      16.55976233       10      -0.00274432      -0.00257872       0.02263018
C       -2.11319647       8.31216104      16.57924410       10       0.00027673      -0.00598713       0.03622172
C       -0.90078414       9.00827111      16.57821887       10       0.00101209      -0.00241491       0.00692675
C        5.15611112      -0.09061025      16.57924389       10      -0.00117127       0.00394941       0.02572172
C        6.36777295       0.60869342      16.57721038       10      -0.00038773       0.00273046       0.01389791
C        3.94702110       2.00851710      16.56692908       10      -0.00106850       0.00515624       0.01217958
C        5.15637518       2.70995045      16.55976223       10       0.00142010      -0.00142273       0.01821112
C        2.73536852       4.10775311      16.54587873       10       0.00135347      -0.00087776       0.00300959
C        3.94742188       4.80924200      16.54309087       10       0.00120588      -0.00246468       0.00612932
C        1.52167547       6.20967723      16.54587863       10      -0.00426805       0.00049452       0.00099969
C        2.73523471       6.90808228      16.54309076       10      -0.00626052       0.00402131       0.01569145
C        0.30932160       8.30943878      16.56692921       10       0.00330404      -0.00353823       0.00670088
C        1.52178696       9.00672603      16.55976208       10       0.00121572       0.00010227       0.00923158
C        7.57397655      -0.09360510      16.56882215       10      -0.00240083       0.00008980       0.00488457
C        8.78971902       0.60865150      16.55209003       10      -0.00481865      -0.00203593       0.04597546
C        6.36004037       2.00466905      16.56882236       10      -0.00058743       0.00067456       0.00036403
C        7.57602231       2.70573506      16.55209022       10      -0.00300098      -0.00042786       0.05043633
C        5.15841895       4.10764707      16.54587873       10       0.00260770      -0.00215337       0.00929155
C        6.37097683       4.80882283      16.53763229       10       0.00119927      -0.00088114      -0.01162190
C        3.94749570       6.20856917      16.54001287       10      -0.00367352       0.00123267      -0.01201532
C        5.15805874       6.90772513      16.54309076       10       0.00295019      -0.00026833       0.00417793
C        2.73355368       8.30858599      16.54587846       10       0.00033900       0.00268180      -0.00098209
C        3.94593653       9.00880437      16.53763188       10       0.00133091      -0.00221011      -0.01062794
C       10.00665561      -0.09329361      16.52596229       10      -0.00622814      -0.00512971       0.00157171
C       11.22388187       0.60773650      16.55209003       10       0.00370453      -0.00316159       0.01709154
C        8.76402191       1.99322590      16.54445148       10      -0.00595234      -0.00176353       0.41480359
C       10.00283784       2.71281129      16.30009222       10      -0.00338567      -0.00030910      -1.87235754
C        7.57815557       4.11195727      16.52596234       10      -0.00267387      -0.00045095      -0.02705919
C        8.79486915       4.81715638      16.55208766       10      -0.00378986       0.00423595       0.04543214
C        6.37198202       6.20992340      16.54587863       10       0.00492034      -0.00050065       0.01590313
C        7.58109305       6.91033389      16.55976233       10       0.00158324       0.00208865       0.02031372
C        5.16042536       8.30881975      16.54587846       10       0.00056994      -0.00210979       0.00500199
C        6.37169492       9.00565698      16.55976208       10       0.00572090       0.00196610       0.01327321
O       10.09066143       2.64779794      14.77240630       11       0.00163273      -0.00277147      -0.00537251
H        9.37691572       3.15251637      14.33267192       12      -0.00300781       0.00211637      -0.00264427
