132
Lattice="12.12 0.0 0.0 -6.06 10.496227893867395 0.0 0.0 0.0 40.0" Properties=species:S:1:pos:R:3:tags:I:1:forces:R:3 energy=-1210.8331324380383 stress="0.002862080626648244 6.54738467342774e-06 -7.995265292207834e-06 6.54738467342774e-06 0.002861065680519022 -5.765584187728426e-06 -7.995265292207834e-06 -5.765584187728426e-06 0.0026715340615881544" pbc="T T F"
C       -0.13292208       0.12098032      10.00690797        2       0.00088734      -0.00252709       0.00217541
Ti      -0.13915946       1.86878049      11.32059990        0      -0.00092741      -0.00200198      -0.00045767
Ti       1.38117991       0.99680518       8.72038592        0      -0.00068220       0.00000389      -0.00503173
O       -0.13566564       1.87234204       7.78259768        1      -0.00016431      -0.00150432       0.00150044
O        1.38456817       0.99457272      12.23008024        3       0.00036078      -0.00080872      -0.05025016
C       -1.64985699       2.74398911      10.01622089        2      -0.00077953      -0.00199794       0.00099036
Ti      -1.64173008       4.50464642      11.28301063        0       0.00154740      -0.00306204      -0.00209340
Ti      -0.13258171       3.61963048       8.72026405        0      -0.00047510      -0.00223601      -0.00133488
O       -1.64806863       4.49280544       7.77975683        1      -0.00085382      -0.00185599       0.00025918
O       -0.12914440       3.62681154      12.23008024        3      -0.00185454      -0.00064201      -0.20198140
C       -3.16322572       5.37195023      10.00110754        2      -0.00081762      -0.00197375       0.00624386
Ti      -3.16494599       7.11915587      11.30527350        0      -0.00073932      -0.00059328      -0.00047541
Ti      -1.64960747       6.24570272       8.71285277        0      -0.00060354      -0.00440958       0.00098912
O       -3.16287967       7.11986345       7.77689691        1       0.00056287      -0.00084125      -0.00126858
O       -1.65146418       6.24659085      12.23008024        3      -0.00132099      -0.00236459      -0.08411086
C       -4.67884362       7.99430547      10.00252497        2       0.00066798      -0.00102872       0.00081505
Ti      -4.67739294       9.74191132      11.30379536        0      -0.00466875      -0.00027686      -0.00159003
Ti      -3.16355917       8.86985553       8.71577270        0      -0.00156198       0.00173601      -0.00010637
O       -4.67897517       9.74495764       7.77939624        1      -0.00154442       0.00033920       0.00270423
O       -3.16270208       8.86856219      12.23008024        3      -0.00194492      -0.00044176      -0.08211803
C        2.89637588       0.12209365      10.00471643        2      -0.00073072      -0.00008539       0.00266507
Ti       2.89660839       1.86994632      11.30424387        0      -0.00235621       0.00370128      -0.00204213
Ti       4.41110130       0.99690190       8.71743714        0      -0.00419829       0.00042751      -0.00295551
O        2.89501391       1.87111298       7.78032076        1      -0.00269755      -0.00045758       0.00353126
O        4.41265585       0.99686979      12.23008024        3      -0.00197817       0.00151760      -0.08393140
C        1.38015276       2.74563232      10.00874484        2       0.00131298      -0.00072190       0.00298555
Ti       1.37882154       4.49117555      11.31108335        0      -0.00185057       0.00013359       0.00064717
Ti       2.89663679       3.62124679       8.71780440        0      -0.00018073      -0.00522427      -0.00000945
O        1.37899794       4.49405900       7.78163442        1      -0.00093209       0.00196552      -0.00107268
O        2.89867231       3.61963191      12.23008024        3      -0.00124569      -0.00145352      -0.06557012
C       -0.13501500       5.37004888      10.00664820        2      -0.00150239       0.00014435       0.00028089
Ti      -0.13506476       7.12036351      11.30754579        0      -0.00177423       0.00091455      -0.00126736
Ti       1.38177559       6.24479559       8.71826516        0       0.00257239       0.00043055       0.00149579
O       -0.13317795       7.11913769       7.77922605        1      -0.00162988      -0.00189004      -0.00171020
O        1.38057339       6.24532846      12.23008024        3      -0.00124686       0.00279229      -0.06911052
C       -1.64836848       7.99448189      10.00404885        2      -0.00087301      -0.00104551      -0.00105308
Ti      -1.64954238       9.74427387      11.30327664        0       0.00176075      -0.00076446      -0.00042285
Ti      -0.13303352       8.86882796       8.71762618        0      -0.00545922       0.00114582       0.00174964
O       -1.64829567       9.74407333       7.77874425        1       0.00144366      -0.00209210       0.00226760
O       -0.13414373       8.86946011      12.23008024        3      -0.00013791      -0.00054038      -0.06316556
C        5.92645620       0.12173327      10.00458191        2      -0.00042754      -0.00056980      -0.00153349
Ti       5.92776259       1.87298188      11.30926520        0      -0.00212772      -0.00188048      -0.00287360
Ti       7.43978697       0.99708092       8.71296957        0       0.00066826       0.00030398      -0.00210580
O        5.92745756       1.87110124       7.77857774        1       0.00004599      -0.00231150      -0.00206403
O        7.43833279       0.99685717      12.23008024        3      -0.00003477      -0.00011254      -0.08950736
C        4.41089675       2.74651796      10.00369919        2       0.00015114      -0.00116436       0.00108132
Ti       4.40897835       4.49499021      11.30425240        0      -0.00135373      -0.00175946      -0.00092081
Ti       5.92608495       3.62060782       8.71491583        0      -0.00005175      -0.00016723       0.00098732
O        4.41031939       4.49391365       7.77766330        1      -0.00016093      -0.00062840      -0.00155604
O        5.92333278       3.62073250      12.23008024        3      -0.00093303      -0.00097783      -0.11220437
C        2.89642206       5.37033026      10.00366292        2       0.00129706       0.00118863      -0.00161677
Ti       2.89653105       7.11738724      11.30420567        0      -0.00223538       0.00053969      -0.00009364
Ti       4.41123130       6.24489269       8.71399319        0      -0.00244146      -0.00006314      -0.00095022
O        2.89524057       7.11998673       7.77787602        1      -0.00726208       0.00212075      -0.00044833
O        4.41181468       6.24402662      12.23008024        3      -0.00066279      -0.00056889      -0.10782220
C        1.38167284       7.99326539      10.00442923        2      -0.00344527       0.00087386       0.00248899
Ti       1.37968152       9.74358512      11.30967720        0      -0.00174103      -0.00218848      -0.00243525
Ti       2.89696273       8.86754600       8.71885562        0       0.00011215      -0.00424703       0.00144488
O        1.38291838       9.74403130       7.78023378        1      -0.00058360      -0.00150627      -0.00323052
O        2.89334259       8.86522350      12.23008024        3      -0.00382681      -0.00176507      -0.07957774
C        8.95583319       0.12362085      10.00943961        2      -0.00177152      -0.00160977      -0.00165859
Ti       8.95367996       1.85155914      11.28024635        0       0.00172308      -0.00519337      -0.00478313
Ti      10.47307554       0.99637916       8.72063857        0       0.00120999      -0.00073413      -0.00323555
O        8.95845178       1.87159186       7.77911095        1       0.00025946      -0.00125403      -0.00369429
O       10.47795228       0.96578577      12.23008024        3       0.00023884      -0.00161094      -0.52392011
C        7.44313182       2.74357472      10.00497406        2      -0.00057215      -0.00233449       0.00460095
Ti       7.42852146       4.50361492      11.28897749        0       0.00009300      -0.00127811      -0.00357309
Ti       8.95586212       3.62047968       8.72051581        0      -0.00164255      -0.00107465      -0.00361407
O        7.44359327       4.49341614       7.77793461        1      -0.00185867      -0.00020504       0.00247330
O        8.92898424       3.64534598      12.23008024        3      -0.00292678      -0.00086674      -0.04540525
C        5.92386381       5.37137262      10.00022416        2       0.00015377      -0.00153986       0.00247755
Ti       5.92557289       7.11916729      11.30235926        0      -0.00011000       0.00087272      -0.00147917
Ti       7.44203065       6.24542659       8.71284561        0      -0.00112221      -0.00401240       0.00194860
O        5.92619430       7.12068621       7.77647076        1       0.00098135      -0.00141949      -0.00123276
O        7.44029245       6.24651547      12.23008024        3      -0.00119371      -0.00076711      -0.11124847
C        4.41074133       7.99061691      10.00199360        2      -0.00023492      -0.00315650      -0.00114239
Ti       4.41397221       9.74261891      11.31173709        0      -0.00085121      -0.00214737      -0.00069245
Ti       5.92604868       8.86842294       8.71669106        0       0.00371894       0.00142477       0.00146308
O        4.41025161       9.74595076       7.78162251        1      -0.00146797      -0.00310197      -0.00197260
O        5.92884991       8.86396617      12.23008024        3       0.00145173       0.00039870      -0.06487963
C        0.27184115      -0.13412668      15.99888589       10      -0.00003537      -0.00150676       0.01236793
C        1.48077900       0.56750495      16.00727412       10       0.00018854       0.00335696       0.04721688
C       -0.92038067       1.95510551      15.97451522       10      -0.00232560       0.00265164       0.81147728
C        0.26925648       2.66531819      15.98215396       10       0.00006936      -0.00101946       0.07754218
C       -2.16041755       4.09778948      15.97450967       10       0.00303536       0.00349493       0.52779652
C       -0.94874739       4.77177002      15.98215140       10       0.00267512       0.00160625       0.08385644
C       -3.37186100       6.17580328      15.99888534       10       0.00101930      -0.00017917       0.04519345
C       -2.15897700       6.87123820      16.00727392       10       0.00025052       0.00150980       0.04448985
C       -4.58295126       8.26765674      15.99699295       10       0.00197997      -0.00214574       0.03387635
C       -3.37096570       8.96676694      16.00828261       10       0.00076213       0.00308489       0.01361078
C        2.69092995      -0.13114026      16.00930763       10      -0.00075131       0.00112727       0.01920106
C        3.90093006       0.56945184      16.00828252       10      -0.00008619      -0.00220359       0.01464139
C        1.48490552       1.96537847      15.99888610       10       0.00148385       0.00142762       0.01047218
C        2.69095628       2.66869148      15.98982597       10       0.00256847       0.00082127       0.03341631
C        0.26478889       4.06812344      15.95602608       10       0.00262713      -0.00244392       0.18029639
C        1.47532742       4.76707275      15.96769603       10      -0.00233567       0.00214782       0.01994790
C       -0.94657925       6.17483822      15.99888534       10       0.00308053       0.00150942       0.01670750
C        0.26550664       6.86890819      15.98982607       10       0.00037438       0.00122425       0.05076602
C       -2.15904962       8.26913754      16.00930784       10       0.00225747       0.00415549       0.02709198
C       -0.94710916       8.96677363      16.00828261       10       0.00129229      -0.00050331       0.01685068
C        5.11121196      -0.13100919      16.00930763       10       0.00567421      -0.00132890       0.03646471
C        6.32202187       0.56773461      16.00727412       10       0.00243403       0.00511113       0.03444568
C        3.90121665       1.96870492      15.99699282       10       0.00256544      -0.00236218       0.04043499
C        5.11153704       2.66864997      15.98982597       10      -0.00045367       0.00156509       0.01486013
C        2.68878379       4.06793907      15.97594247       10      -0.00166903       0.00384223       0.00119496
C        3.90050865       4.76803427      15.97315461       10       0.00133416      -0.00196791       0.05890885
C        1.47662488       6.16773634      15.97594237       10       0.00442783       0.00233929       0.00185405
C        2.68854605       6.86757758      15.97315450       10       0.00506415       0.00265938       0.08123568
C        0.26491168       8.26749371      15.99699295       10       0.00133411      -0.00009425       0.03123918
C        1.47673415       8.96573957      15.98982582       10      -0.00199908       0.00349013       0.03393167
C        7.53180929      -0.13343881      15.99888589       10       0.00335408       0.00232896       0.03018517
C        8.74601175       0.57038726      15.98215377       10       0.00442926       0.00186232       0.05862106
C        6.31829355       1.96577069      15.99888610       10       0.00000864       0.00315311       0.04526450
C        7.53391497       2.66673432      15.98215396       10       0.00106014       0.00135184       0.03009142
C        5.11253347       4.06809146      15.97594247       10       0.00143980       0.00283531       0.01928452
C        6.32573930       4.76798925      15.96769603       10       0.00328168       0.00312980      -0.01536771
C        3.90052161       6.16789102      15.97007661       10       0.00399588      -0.00132399       0.00069251
C        5.11257329       6.86811168      15.97315450       10       0.00178741       0.00511920       0.05330257
C        2.68899461       8.26699058      15.97594220       10       0.00033158       0.00154242       0.00724238
C        3.90120455       8.96848274      15.96769562       10      -0.00162112       0.00629728      -0.02359825
C        9.96130415      -0.12950002      15.95602603       10       0.00483839       0.00265761       0.20316629
C       11.17817883       0.56898182      15.98215377       10       0.00381600       0.00409407       0.04139130
C        8.72491506       1.95789265      15.97451522       10       0.00051834       0.00036767       0.48341760
C        9.95979545       2.67331442      15.73015596       10      -0.00137003       0.00463741      -1.80585057
C        7.53651376       4.06927094      15.95602608       10       0.00138460       0.00120500       0.19412480
C        8.74948920       4.77347897      15.98215140       10       0.00372294       0.00214723       0.04765448
C        6.32476860       6.16833892      15.97594237       10       0.00008578       0.00325163       0.01536876
C        7.53593410       6.86948503      15.98982607       10       0.00308032       0.00103776       0.01469972
C        5.11330794       8.26771111      15.97594220       10      -0.00248419       0.00252841       0.00820554
C        6.32587846       8.96583218      15.98982582       10       0.00327730       0.00091337       0.02087918
O       10.02154983       2.61510465      14.24624396       11      -0.00559919      -0.00152188      -0.00092445
H        9.39059196       3.19538897      13.73490210       12      -0.00062942      -0.00690203       0.00509467
