131
Lattice="12.12 0.0 0.0 -6.06 10.496227893867395 0.0 0.0 0.0 40.0" Properties=species:S:1:pos:R:3:tags:I:1:forces:R:3 energy=-1206.0990692769917 stress="0.0029346104474394148 -4.0785658554184655e-08 1.7859015819228873e-06 -4.0785658554184655e-08 0.0029350895765503 3.743494730925498e-06 1.7859015819228873e-06 3.743494730925498e-06 0.002528708343949183" pbc="T T F"
C       -0.36198651       0.18205046      10.00181743        2      -0.00059672       0.00091389       0.00132985
Ti      -0.36138104       1.92984866      11.29969378        0       0.00152946      -0.00016534      -0.00156552
Ti       1.15467826       1.05553734       8.71768139        0      -0.00028305       0.00048081       0.00016874
O       -0.35780944       1.93136743       7.77746801        1       0.00193897       0.00134957      -0.00025891
O        1.15120406       1.05962319      12.23008024        3       0.00001208       0.00044086       0.06985783
C       -1.87503241       2.80289072      10.00180676        2       0.00037518       0.00034369       0.00087153
Ti      -1.87501568       4.55194654      11.30549951        0       0.00003440       0.00430026      -0.00178933
Ti      -0.36021275       3.67940076       8.71754340        0      -0.00008736      -0.00054271      -0.00085868
O       -1.87498147       4.56018308       7.78412967        1       0.00031879       0.00144801      -0.00050410
O       -0.35914656       3.67442945      12.23008024        3       0.00125204       0.00279322       0.07172981
C       -3.39062829       5.42922429      10.01274454        2       0.00008918       0.00051716       0.00102004
Ti      -3.38800385       7.18043973      11.33033348        0       0.00079724       0.00147775      -0.00051315
Ti      -1.87488826       6.30308824       8.73213556        0       0.00031318      -0.00010792       0.00064262
O       -3.38615619       7.18070238       7.79114250        1      -0.00024652       0.00028274      -0.00032877
O       -1.87524545       6.28490612      12.23008024        3      -0.00039156       0.00175836      -0.05892497
C       -4.90534551       8.05242941      10.01260871        2      -0.00010269       0.00136060       0.00157354
Ti      -4.90736274       9.80409595      11.30533442        0       0.00368597      -0.00158763      -0.00039582
Ti      -3.39023853       8.92803464       8.73233242        0      -0.00078213       0.00133207       0.00211270
O       -4.89975444       9.79962754       7.78428362        1       0.00046441       0.00012517      -0.00120239
O       -3.40886211       8.93703507      12.23008024        3      -0.00225611       0.00252435      -0.11172318
C        2.67095080       0.18122451      10.01401880        2      -0.00080754       0.00043281       0.00111917
Ti       2.66830733       1.93084482      11.30384501        0       0.00009901      -0.00103954      -0.00181093
Ti       4.18495873       1.05399574       8.72387977        0       0.00075380       0.00030249       0.00021039
O        2.67169710       1.92830666       7.78160772        1       0.00020557       0.00003097      -0.00215535
O        4.18512636       1.06533506      12.23008024        3       0.00027830      -0.00088224       0.08769000
C        1.15491102       2.80498017      10.00424859        2       0.00029791       0.00065437       0.00112603
Ti       1.15404093       4.55305234      11.30326832        0       0.00098649       0.00154342      -0.00249464
Ti       2.66970935       3.67943842       8.71701524        0      -0.00002176      -0.00015931       0.00147831
O        1.15426880       4.55651849       7.78136543        1       0.00001789       0.00153210      -0.00268302
O        2.67046485       3.68067729      12.23008024        3       0.00022445       0.00007093       0.05175661
C       -0.35948343       5.42941931      10.01321185        2       0.00069105       0.00053717       0.00178761
Ti      -0.36170883       7.18112412      11.33189044        0      -0.00095619       0.00135782      -0.00173086
Ti       1.15371449       6.30436260       8.72338541        0      -0.00149978       0.00121767      -0.00052911
O       -0.36373423       7.18079563       7.79147103        1       0.00109788       0.00002920      -0.00132503
O        1.16296456       6.29904787      12.23008024        3       0.00048097       0.00046500       0.09009540
C       -1.87471447       8.05364950      10.03364310        2       0.00067080       0.00018174      -0.00067953
Ti      -1.87427034       9.79994981      11.33331696        0      -0.00038355      -0.00107586      -0.00007622
Ti      -0.35954998       8.92804250       8.73274241        0       0.00094364       0.00078609       0.00117081
O       -1.87484165       9.79830118       7.79142501        1       0.00000443       0.00041181       0.00000492
O       -0.33852009       8.93883685      12.23008024        3      -0.00095005       0.00103774      -0.15489030
C        5.69941611       0.18152681      10.01398868        2       0.00056640       0.00082191       0.00078455
Ti       5.70189596       1.93114425      11.30384309        0      -0.00117393      -0.00153650      -0.00208431
Ti       7.21527725       1.05565481       8.71787825        0       0.00061032       0.00061429      -0.00184550
O        5.69831873       1.92830720       7.78161009        1      -0.00014371       0.00051095      -0.00160448
O        7.21916030       1.06036631      12.23008024        3       0.00026653       0.00048294       0.06359275
C        4.18487767       2.80527459      10.00610524        2       0.00046366       0.00015061       0.00185174
Ti       4.18458362       4.55462412      11.30257511        0       0.00145631      -0.00065203      -0.00246099
Ti       5.69997376       3.67955781       8.71702779        0       0.00087429      -0.00045384      -0.00025564
O        4.18481896       4.55420038       7.77901779        1       0.00023148       0.00018590      -0.00305218
O        5.69912949       3.68095970      12.23008024        3       0.00200337      -0.00056380       0.04687240
C        2.66992687       5.42902395      10.00591801        2       0.00110070       0.00018207       0.00063671
Ti       2.67134811       7.17990575      11.30322780        0      -0.00027810      -0.00016936      -0.00236753
Ti       4.18493693       6.30372670       8.71670928        0       0.00019695       0.00068791       0.00169788
O        2.66773350       7.17792122       7.78127118        1      -0.00104560       0.00043844      -0.00273423
O        4.18505936       6.30340232      12.23008024        3       0.00047633       0.00095980       0.04003478
C        1.15552364       8.05256820      10.01302782        2       0.00035530      -0.00012238       0.00221235
Ti       1.15799211       9.80448485      11.30534149        0      -0.00309794      -0.00130093      -0.00141250
Ti       2.67009365       8.92794431       8.71764717        0       0.00053443       0.00137136      -0.00087559
O        1.14995315       9.79978314       7.78436504        1      -0.00063116      -0.00064197      -0.00005442
O        2.67576165       8.92918548      12.23008024        3      -0.00114155      -0.00139861       0.05895840
C        8.73242917       0.18243571      10.00190456        2       0.00085060       0.00016241       0.00111239
Ti       8.73180607       1.93006727      11.30022807        0      -0.00033834       0.00062499      -0.00164003
Ti      10.24493739       1.05555066       8.71333652        0       0.00010445       0.00054264      -0.00080859
O        8.72785957       1.93137825       7.77747482        1      -0.00191823       0.00107005       0.00041044
O       10.24514456       1.05597088      12.23008024        3       0.00055476       0.00025696       0.03102165
C        7.21492187       2.80518128      10.00421971        2       0.00082246       0.00042728       0.00272152
Ti       7.21531177       4.55300044      11.30276929        0       0.00083581       0.00169613      -0.00224240
Ti       8.73009303       3.67948582       8.71766881        0       0.00015085      -0.00014530      -0.00264289
O        7.21558093       4.55643829       7.78112312        1      -0.00003557       0.00084569      -0.00189311
O        8.72885692       3.67519025      12.23008024        3       0.00014881       0.00010995       0.06836319
C        5.69970318       5.42902994      10.00562944        2       0.00043810       0.00015243       0.00143652
Ti       5.69871337       7.17965941      11.30284620        0       0.00148114       0.00111914      -0.00199425
Ti       7.21632319       6.30444459       8.72274570        0       0.00075333      -0.00016078       0.00008326
O        5.70208971       7.17781400       7.78097860        1       0.00081146       0.00085238      -0.00208736
O        7.20676698       6.29910688      12.23008024        3       0.00102886       0.00118646       0.08386345
C        4.18502941       8.05313837      10.00418324        2       0.00016482       0.00026965       0.00085162
Ti       4.18523846       9.80450373      11.30044747        0       0.00121805       0.00014785      -0.00159288
Ti       5.69994314       8.92789871       8.71747983        0      -0.00015937       0.00112896      -0.00004380
O        4.18495132       9.80010183       7.77740931        1       0.00032903      -0.00159563      -0.00042067
O        5.69494925       8.92906505      12.23008024        3       0.00040885       0.00082505       0.06064658
C        0.60662436      -0.21423944      16.39454740       10      -0.00068174      -0.00185701       0.01142723
C        1.81727845       0.48503585      16.37925535       10       0.00114653       0.00129721       0.03024863
C       -0.60363656       1.88440794      16.39986810       10       0.00055610      -0.00398060      -0.02130649
C        0.60862806       2.58419460      16.38215767       10      -0.00183227      -0.00266204       0.00249679
C       -1.81574214       3.98177742      16.39454740       10       0.00149880      -0.00346423       0.01321813
C       -0.60469139       4.68047724      16.37925535       10      -0.00001444      -0.00276666       0.02652236
C       -3.02293904       6.08422923      16.33143665       10       0.00045980      -0.00268147      -0.00211716
C       -1.81592191       6.76614561      16.28961443       10       0.00050028      -0.00289536      -0.44293001
C       -4.23577474       8.18530414      16.33143665       10      -0.00310981      -0.00010587      -0.00606743
C       -3.04151149       8.88931420      16.28961443       10      -0.00137758       0.00104775      -0.46108961
C        3.03120441      -0.22066591      16.33143665       10      -0.00046667       0.00135372      -0.00334036
C        4.24408319       0.48348947      16.29935797       10      -0.00011972      -0.00143415       0.18577533
C        1.82019501       1.88337910      16.36821238       10      -0.00238346      -0.00022779      -0.00951270
C        3.03214797       2.58283938      16.34629797       10      -0.00115689      -0.00085575      -0.01811739
C        0.60768368       3.98379012      16.36821238       10      -0.00080741      -0.00362976      -0.01373412
C        1.81941059       4.68367234      16.34629797       10      -0.00020768      -0.00091232      -0.01391066
C       -0.60880902       6.08440348      16.33143665       10       0.00064948      -0.00409948      -0.00073444
C        0.60714144       6.78299271      16.29935797       10       0.00137630      -0.00029949       0.18776734
C       -1.81651251       8.18090951      15.83680877       10      -0.00056549       0.00079975       0.60736839
C       -0.59094885       8.88901305      16.28961443       10       0.00224544      -0.00094937      -0.47553702
C        5.45675758      -0.22096154      16.33143665       10       0.00146863       0.00283316      -0.00479376
C        6.67081542       0.48474507      16.37925535       10       0.00166553       0.00092562       0.03137972
C        4.24432600       1.88063161      16.33169168       10      -0.00210756      -0.00242582      -0.06755597
C        5.45659317       2.58269720      16.34629797       10      -0.00214897       0.00033997      -0.02007357
C        3.03169990       3.98302472      16.34361636       10      -0.00280318      -0.00186484       0.00574633
C        4.24447705       4.68318524      16.33861559       10      -0.00176329      -0.00005165      -0.01329941
C        1.81718035       6.08455561      16.33169168       10       0.00066700      -0.00255383      -0.07118416
C        3.03153879       6.78300847      16.34629797       10      -0.00032773       0.00130380      -0.01776984
C        0.60357799       8.18532775      16.33143665       10       0.00054536       0.00025024      -0.00921226
C        1.82173868       8.88367617      16.37925535       10       0.00020104      -0.00143849       0.03535779
C        7.88155366      -0.21446609      16.39454740       10       0.00061598       0.00164554       0.01026120
C        9.09302670       0.48520664      16.40148592       10       0.00153664      -0.00020046      -0.01742024
C        6.66832880       1.88308850      16.36821238       10      -0.00107499      -0.00048139      -0.00743423
C        7.87980654       2.58395237      16.38215767       10       0.00169697      -0.00081042       0.00497519
C        5.45714404       3.98285480      16.34361636       10      -0.00341046      -0.00184010       0.00468332
C        6.66919144       4.68356968      16.34629797       10      -0.00085927      -0.00185067      -0.01170268
C        4.24431921       6.08350148      16.34361636       10      -0.00159275      -0.00066999       0.00421780
C        5.45700646       6.78305848      16.34629797       10      -0.00089142      -0.00000437      -0.01172537
C        3.03145710       8.18227414      16.36821238       10       0.00122627       0.00134162      -0.01032600
C        4.24403454       8.88127350      16.38215767       10      -0.00063201       0.00182223       0.00877288
C       10.30408228      -0.21521114      16.39986810       10      -0.00055516      -0.00004602      -0.02053710
C       11.51510777       0.48524753      16.40148592       10       0.00272950       0.00053641      -0.01413238
C        9.09202427       1.88429954      16.39986810       10       0.00065629      -0.00334940      -0.01708603
C       10.30419011       2.58289902      16.40148592       10      -0.00110438      -0.00038345      -0.01786170
C        7.88085424       3.98358746      16.36821238       10      -0.00048070      -0.00384511      -0.01359168
C        9.09314313       4.68035169      16.37925535       10      -0.00175953      -0.00156999       0.03026283
C        6.67130666       6.08448275      16.33169168       10      -0.00113211      -0.00106754      -0.07495509
C        7.88123129       6.78296026      16.29935797       10      -0.00181677       0.00081217       0.18798542
C        5.45674289       8.18238753      16.36821238       10      -0.00387759      -0.00016026      -0.01376848
C        6.66633953       8.88378768      16.37925535       10      -0.00048239       0.00205040       0.03668714
O       -1.82205758       8.17086674      14.49207993       11       0.00262951       0.00351316       0.00532861
