130
Lattice="12.12 0.0 0.0 -6.06 10.496227893867395 0.0 0.0 0.0 40.0" Properties=species:S:1:pos:R:3:tags:I:1:forces:R:3 energy=-1200.5973590523527 stress="0.0027968438690330836 -3.517645983288083e-08 -6.130787275619134e-07 -3.517645983288083e-08 0.0027968346749142094 -8.668999429849332e-07 -6.130787275619134e-07 -8.668999429849332e-07 0.002402942407806011" pbc="T T F"
C       -0.00003518      -0.00003606      10.00272471        2      -0.00024690      -0.00027392       0.00632147
Ti      -0.00018105       1.74974906      11.31564392        0      -0.00013556       0.00031504       0.00394988
Ti       1.51499934       0.87471999       8.69575636        0      -0.00034477      -0.00021286       0.00939357
O        0.00003156       1.74915269       7.77079230        1       0.00010045      -0.00106420       0.00750386
O        1.51589404       0.87501443      12.23159545        3       0.00049145       0.00006287      -0.02548623
C       -1.51504914       2.62412819      10.00213924        2      -0.00063948       0.00055116       0.00466909
Ti      -1.51588959       4.37396394      11.31261090        0      -0.00042789       0.00023338       0.00236590
Ti      -0.00000712       3.49854211       8.69511247        0      -0.00012734      -0.00068120       0.00721014
O       -1.51463848       4.37329407       7.76987960        1       0.00072801      -0.00072335       0.00447401
O       -0.00026271       3.49958564      12.23159545        3      -0.00019968       0.00140940      -0.03795925
C       -3.03011077       5.24803389      10.00060668        2      -0.00014261      -0.00017278       0.00245361
Ti      -3.02998952       6.99652619      11.31172254        0       0.00002654      -0.00092058       0.00228944
Ti      -1.51503026       6.12273143       8.69361381        0       0.00008131       0.00003341       0.00407232
O       -3.02985778       6.99782031       7.76971916        1      -0.00005169       0.00084724       0.00407768
O       -1.51618210       6.12210936      12.23159545        3       0.00037083       0.00015317      -0.03325091
C       -4.54490904       7.87204199      10.00194320        2       0.00023786      -0.00102972       0.00428019
Ti      -4.54454211       9.62095532      11.31530819        0      -0.00004211      -0.00036167       0.00413838
Ti      -3.03019644       8.74692588       8.69476624        0      -0.00050498       0.00020274       0.00705746
O       -4.54518365       9.62173707       7.77067569        1      -0.00075294       0.00064027       0.00731576
O       -3.02944114       8.74602765      12.23159545        3       0.00147829      -0.00084417      -0.04117057
C        3.03011502      -0.00016304      10.00227951        2       0.00095840       0.00000628       0.00490516
Ti       3.03090365       1.74982102      11.31419028        0       0.00082740       0.00013892       0.00295586
Ti       4.54497930       0.87478168       8.69448549        0      -0.00036988      -0.00032625       0.00478052
O        3.02958102       1.74912952       7.77026155        1      -0.00144210      -0.00091306       0.00570137
O        4.54636057       0.87635423      12.23159545        3       0.00126332       0.00003065      -0.04385605
C        1.51491394       2.62413074      10.00232171        2       0.00070665       0.00075832       0.00525956
Ti       1.51559719       4.37406515      11.31280571        0       0.00066722       0.00040488       0.00319136
Ti       3.03005985       3.49870186       8.69458147        0      -0.00042879      -0.00029594       0.00446361
O        1.51473346       4.37327222       7.77001278        1      -0.00073871      -0.00087297       0.00467552
O        3.03224890       3.49900222      12.23159545        3       0.00063429       0.00051929      -0.04188504
C       -0.00009377       5.24814928      10.00132672        2       0.00016910       0.00031654       0.00303153
Ti      -0.00008659       6.99740109      11.30801998        0      -0.00010918      -0.00038043       0.00010923
Ti       1.51500119       6.12270861       8.69363070        0      -0.00028040       0.00000787       0.00369786
O        0.00003449       6.99749122       7.76931064        1      -0.00008473      -0.00007733       0.00253484
O        1.51554912       6.12232460      12.23159545        3      -0.00064873       0.00048284      -0.02843534
C       -1.51499914       7.87205244      10.00114687        2       0.00049910      -0.00044847       0.00275012
Ti      -1.51418558       9.62156381      11.31220370        0       0.00094357       0.00023357       0.00303820
Ti      -0.00003173       8.74687333       8.69343068        0      -0.00013545      -0.00027516       0.00395632
O       -1.51522145       9.62140573       7.76987804        1      -0.00089562      -0.00015235       0.00454702
O       -0.00014554       8.74703613      12.23159545        3       0.00020168      -0.00069454      -0.02552730
C        6.05997466       0.00012879      10.00099374        2      -0.00007351      -0.00007344       0.00264631
Ti       6.06012450       1.75053386      11.31048536        0       0.00010895       0.00119114      -0.00046664
Ti       7.57499875       0.87478248       8.69420260        0       0.00016680      -0.00028226       0.00435403
O        6.05991776       1.74898383       7.76947301        1      -0.00020120      -0.00088152       0.00254128
O        7.57350027       0.87641602      12.23159545        3      -0.00114891      -0.00019018      -0.04066976
C        4.54505696       2.62404581      10.00041833        2       0.00062284       0.00056422       0.00254602
Ti       4.54607850       4.37316128      11.31032417        0       0.00068715      -0.00037112       0.00001560
Ti       6.05999609       3.49876474       8.69308654        0       0.00006834      -0.00006689       0.00065993
O        4.54461991       4.37349005       7.76945937        1      -0.00082747       0.00003756       0.00227370
O        6.06073807       3.49973969      12.23159545        3      -0.00030027       0.00008883       0.00184805
C        3.03010785       5.24803132      10.00088192        2       0.00001573      -0.00016333       0.00288566
Ti       3.02982427       6.99667175      11.31127436        0      -0.00044974      -0.00114098       0.00202443
Ti       4.54505228       6.12272911       8.69408738        0      -0.00010557       0.00025125       0.00352274
O        3.02982667       6.99774827       7.76976555        1      -0.00000789       0.00067734       0.00384433
O        4.54593667       6.12067747      12.23159545        3      -0.00070183      -0.00073335      -0.03524246
C        1.51487311       7.87209333      10.00107012        2      -0.00047341      -0.00059163       0.00249545
Ti       1.51410696       9.62161026      11.31144622        0      -0.00087632      -0.00004771       0.00219971
Ti       3.03017546       8.74692795       8.69459314        0       0.00031691       0.00026129       0.00615732
O        1.51517025       9.62131992       7.76976646        1       0.00056758      -0.00022483       0.00415237
O        3.02927581       8.74624126      12.23159545        3      -0.00189025      -0.00104837      -0.03935383
C        9.08975976      -0.00012995      10.00211118        2      -0.00114098      -0.00015671       0.00439210
Ti       9.08878774       1.74983074      11.31359505        0      -0.00102876       0.00019196       0.00293813
Ti      10.60497810       0.87474445       8.69567919        0       0.00041162      -0.00018731       0.00902922
O        9.09041353       1.74906620       7.77001716        1       0.00129685      -0.00091926       0.00533805
O       10.60352870       0.87517876      12.23159545        3      -0.00130263       0.00004286      -0.02901798
C        7.57496697       2.62403854       9.99997844        2      -0.00068425       0.00036445       0.00211264
Ti       7.57426081       4.37317515      11.31006234        0      -0.00056931      -0.00042352      -0.00133255
Ti       9.08992728       3.49869682       8.69419339        0       0.00037194      -0.00024341       0.00421638
O        7.57524711       4.37350123       7.76932567        1       0.00067873       0.00016569       0.00200895
O        9.08768384       3.49890797      12.23159545        3      -0.00060314       0.00063574      -0.03495918
C        6.06002146       5.24809407       9.99968178        2      -0.00018698      -0.00061347       0.00188647
Ti       6.05994531       6.99608728      11.31336927        0      -0.00029621      -0.00131887       0.00198050
Ti       7.57494064       6.12272483       8.69395999        0       0.00004635       0.00038443       0.00371760
O        6.05995137       6.99799820       7.76995690        1      -0.00006899       0.00156093       0.00469528
O        7.57402662       6.12071516      12.23159545        3       0.00020402      -0.00095576      -0.03069125
C        4.54483627       7.87203335      10.00196722        2      -0.00065852      -0.00120607       0.00432491
Ti       4.54434392       9.62102132      11.31513481        0      -0.00103342      -0.00090030       0.00395078
Ti       6.06000170       8.74681925       8.69558739        0       0.00007706       0.00046275       0.00869212
O        4.54516973       9.62169492       7.77062615        1       0.00077964       0.00052401       0.00707805
O        6.05990993       8.74490899      12.23159545        3      -0.00060965      -0.00092914      -0.03357405
C        0.04486080       0.06762139      16.45264808       10       0.00425837       0.00053990       0.02338163
C        1.25738400       0.76743994      16.45264808       10       0.00370612       0.00377048       0.00176812
C       -1.16762152       2.16700803      16.45264808       10       0.00300357       0.00024113       0.00914533
C        0.04490113       2.86756845      16.45264808       10      -0.00065497       0.00174963       0.00886632
C       -2.37957171       4.26613663      16.45264808       10       0.00253013      -0.00186366       0.00170246
C       -1.16746709       4.96629112      16.45264808       10       0.00119100       0.00207343       0.01577460
C       -3.59123740       6.36496322      16.45264808       10       0.00295895      -0.00134602       0.00067478
C       -2.37881630       7.06435501      16.45264808       10       0.00013298      -0.00075622       0.01581236
C       -4.80300121       8.46409073      16.45264808       10      -0.00037039      -0.00180740       0.00816839
C       -3.58995759       9.16350866      16.45264808       10       0.00067655      -0.00048497       0.01075339
C        2.46892544       0.06773558      16.45264808       10       0.00361655       0.00352602       0.01007896
C        3.68200852       0.76749575      16.45264808       10       0.00284983       0.00208648       0.00028662
C        1.25734328       2.16671507      16.45264808       10       0.00021893       0.00297558       0.01057068
C        2.46985527       2.86741307      16.45264808       10       0.00030628       0.00052912      -0.00084052
C        0.04498145       4.26555046      16.45264808       10       0.00021214       0.00186907       0.00258262
C        1.25748312       4.96645793      16.45264808       10      -0.00001813       0.00058485       0.01918908
C       -1.16702174       6.36507584      16.45264808       10      -0.00049207       0.00342133      -0.01121920
C        0.04525288       7.06515490      16.45264808       10      -0.00129579      -0.00076750       0.04040735
C       -2.37921361       8.46460154      16.45264808       10      -0.00019784       0.00000046       0.00098398
C       -1.16619336       9.16435766      16.45264808       10      -0.00047434      -0.00181496       0.02257436
C        4.89301820       0.06798492      16.45264808       10       0.00127921       0.00295937      -0.00131735
C        6.10499066       0.76812514      16.45264808       10       0.00193095       0.00145171      -0.00785847
C        3.68147540       2.16712756      16.45264808       10      -0.00059645       0.00029361       0.00698745
C        4.89325595       2.86692302      16.45264808       10       0.00102102      -0.00175675      -0.00849710
C        2.46957185       4.26601145      16.45264808       10       0.00013689       0.00025868       0.00073231
C        3.68181077       4.96569515      16.45264808       10       0.00031104       0.00019499      -0.00842558
C        1.25743429       6.36513090      16.45264808       10      -0.00072083       0.00213540      -0.01222507
C        2.46927414       7.06465416      16.45264808       10       0.00075558       0.00014340       0.02053694
C        0.04524485       8.46492367      16.45264808       10      -0.00182105      -0.00117445      -0.01218789
C        1.25680691       9.16468607      16.45264808       10      -0.00115981      -0.00258894       0.02361371
C        7.31691742       0.06812864      16.45264808       10       0.00072122       0.00218994      -0.00232351
C        8.52784895       0.76782604      16.45264808       10       0.00069070       0.00023294       0.00012853
C        6.10493306       2.16702385      16.45264808       10       0.00147369       0.00115023       0.01865457
C        7.31665467       2.86703646      16.45264808       10       0.00072703      -0.00310280      -0.00858744
C        4.89318251       4.26618329      16.45264808       10       0.00035448      -0.00021454       0.02070517
C        6.10508843       4.96572761      16.45264808       10       0.00003418      -0.00140338      -0.00850895
C        3.68155077       6.36515818      16.45264808       10      -0.00010017      -0.00009947      -0.00147742
C        4.89305414       7.06421857      16.45264808       10      -0.00016569      -0.00250375      -0.00196745
C        2.46970173       8.46491170      16.45264808       10      -0.00273790      -0.00170640      -0.00128008
C        3.68031277       9.16389937      16.45264808       10      -0.00323353      -0.00314347       0.01320903
C        9.74093262       0.06814373      16.45264808       10      -0.00009062       0.00089375       0.00878718
C       10.95220371       0.76765997      16.45264808       10       0.00088397       0.00234033       0.00076106
C        8.52846103       2.16726130      16.45264808       10       0.00016402       0.00105735       0.01059141
C        9.74002805       2.86742741      16.45264808       10      -0.00276029       0.00158261      -0.00326051
C        7.31685844       4.26620284      16.45264808       10      -0.00099105      -0.00172755       0.02319566
C        8.52840396       4.96552771      16.45264808       10      -0.00221286       0.00206529      -0.00882343
C        6.10510685       6.36500937      16.45264808       10       0.00082305      -0.00125052       0.01395011
C        7.31732399       7.06393300      16.45264808       10      -0.00262457       0.00021867      -0.00407146
C        4.89363375       8.46446290      16.45264808       10      -0.00328300      -0.00333737       0.00850167
C        6.10523740       9.16355569      16.45264808       10      -0.00378430      -0.00004749       0.00097505
