131
Lattice="12.12 0.0 0.0 -6.06 10.496227893867395 0.0 0.0 0.0 40.0" Properties=species:S:1:pos:R:3:tags:I:1:forces:R:3 energy=-1205.1579816376716 stress="0.0028515396711843548 2.0412741177141924e-07 4.807134594048403e-06 2.0412741177141924e-07 0.0028520788482181004 -1.303893155917073e-06 4.807134594048403e-06 -1.303893155917073e-06 0.002130865457662433" pbc="T T F"
C       -0.00123896       0.00071919      10.00349355        2       0.00038164      -0.00006789       0.00074919
Ti       0.00009347       1.74871999      11.30845147        0       0.00071629      -0.00078002      -0.00203777
Ti       1.51426534       0.87507277       8.69768693        0       0.00051721      -0.00043463       0.00095275
O        0.00186831       1.74869894       7.77151984        1       0.00080877      -0.00024871      -0.00000769
O        1.51249713       0.87384550      12.23159545        3       0.00016233       0.00004504       0.12658815
C       -1.51482633       2.62336707      10.00273402        2       0.00048196      -0.00026892       0.00077871
Ti      -1.51410704       4.36962979      11.30791933        0       0.00024034       0.00110379      -0.00022508
Ti       0.00072741       3.49900510       8.69286737        0       0.00026392      -0.00044812       0.00104934
O       -1.51502001       4.37560571       7.77255783        1       0.00052728       0.00038453       0.00084625
O        0.00111280       3.49746784      12.23159545        3       0.00027489      -0.00085786       0.10225421
C       -3.02937381       5.24592728      10.00607175        2       0.00075693      -0.00047726       0.00088666
Ti      -3.02639763       7.00008521      11.32899802        0       0.00110010       0.00212244       0.00146879
Ti      -1.51459744       6.11958806       8.69994389        0       0.00055305       0.00008209       0.00141239
O       -3.02811024       6.99973477       7.78172016        1       0.00065028       0.00000674       0.00092551
O       -1.51169628       6.11709496      12.23159545        3       0.00118725      -0.00053208       0.07466538
C       -4.54393679       7.87243243      10.01271791        2       0.00042479      -0.00006827       0.00052389
Ti      -4.54272589       9.62041393      11.31950088        0       0.00342085      -0.00176546       0.00217536
Ti      -3.03085268       8.74737080       8.70247134        0       0.00071691      -0.00016924       0.00155525
O       -4.54201323       9.62009266       7.77892704        1       0.00089451      -0.00037684       0.00084945
O       -3.03174067       8.74821627      12.23159545        3       0.00046096      -0.00011019      -0.05304698
C        3.03059739      -0.00078003      10.01368253        2       0.00041134      -0.00015523       0.00041731
Ti       3.03032777       1.74625438      11.31270132        0       0.00085648      -0.00091811      -0.00086789
Ti       4.54601983       0.87440839       8.69874372        0       0.00034228      -0.00018657       0.00129577
O        3.03094816       1.74666493       7.77563296        1       0.00060176      -0.00022674       0.00019091
O        4.54683943       0.87429084      12.23159545        3       0.00049541       0.00044758       0.07250346
C        1.51555422       2.62365324      10.00349399        2       0.00034302      -0.00058397       0.00124960
Ti       1.51456478       4.37380208      11.30900587        0      -0.00009875      -0.00059933      -0.00182531
Ti       3.02993622       3.49779990       8.69213351        0       0.00049671       0.00019265       0.00084825
O        1.51551238       4.37385606       7.77167609        1       0.00022010      -0.00024365      -0.00012189
O        3.02885184       3.49816425      12.23159545        3       0.00024918       0.00045257       0.07469369
C        0.00083362       5.24644488      10.00405346        2       0.00042398      -0.00043625       0.00135099
Ti      -0.00494388       7.00106380      11.32069830        0      -0.00059452       0.00043521       0.00073084
Ti       1.51434077       6.12316669       8.69443567        0       0.00098749      -0.00046113       0.00123920
O       -0.00289580       6.99924583       7.77919227        1       0.00064829      -0.00018534       0.00089149
O        1.51430306       6.12323671      12.23159545        3       0.00145949      -0.00067629       0.08370207
C       -1.51456866       7.87226338      10.02136892        2       0.00052274      -0.00015583      -0.00006091
Ti      -1.51488041       9.61799689      11.32997176        0      -0.00114677      -0.00163667       0.00154042
Ti       0.00289785       8.74816463       8.69978999        0       0.00044856      -0.00029037       0.00150799
O       -1.51595629       9.61914519       7.78184348        1       0.00056567      -0.00029604       0.00099605
O        0.00736317       8.74798759      12.23159545        3       0.00121678      -0.00058688       0.06826282
C        6.06231032       0.00102501      10.00606550        2       0.00088525      -0.00010083       0.00094393
Ti       6.06128758       1.74957455      11.30971880        0       0.00016963      -0.00085877      -0.00074197
Ti       7.57416638       0.87471186       8.69391872        0       0.00043910      -0.00028836       0.00113751
O        6.05830162       1.74849915       7.77294322        1       0.00019858      -0.00024648       0.00055517
O        7.57755615       0.87531416      12.23159545        3       0.00102123      -0.00015470       0.07895424
C        4.54520374       2.62479219      10.00453211        2       0.00049040      -0.00026479       0.00097753
Ti       4.54468839       4.37348593      11.30909663        0       0.00093404      -0.00037663      -0.00202979
Ti       6.05994810       3.49881894       8.69275245        0       0.00042740      -0.00002847       0.00075129
O        4.54492717       4.37349113       7.77163575        1       0.00063230      -0.00014520      -0.00053065
O        6.05999191       3.49928844      12.23159545        3       0.00076031      -0.00023229       0.09726422
C        3.02993148       5.24805164      10.00446341        2       0.00050514      -0.00012537       0.00021285
Ti       3.02937529       6.99756549      11.30908015        0       0.00053365       0.00065833      -0.00194526
Ti       4.54587426       6.12333510       8.69186159        0       0.00016309      -0.00023147       0.00088184
O        3.02987295       6.99686521       7.77171553        1       0.00041920       0.00012687      -0.00017987
O        4.54493026       6.12384924      12.23159545        3      -0.00003839      -0.00007013       0.06902183
C        1.51695950       7.87218974      10.00398350        2       0.00073499       0.00003638       0.00133626
Ti       1.51926269       9.62345176      11.30784068        0      -0.00079535      -0.00050843       0.00000063
Ti       3.03007759       8.74616694       8.69280924        0       0.00065562       0.00013369       0.00105741
O        1.51314174       9.62058969       7.77265894        1       0.00006864      -0.00042369       0.00095109
O        3.03079660       8.74658315      12.23159545        3       0.00080953       0.00047686       0.10051972
C        9.09072824       0.00018182      10.00276984        2       0.00060710       0.00000712       0.00078605
Ti       9.09106757       1.74914329      11.30942974        0       0.00074905      -0.00024569      -0.00341506
Ti      10.60522440       0.87456080       8.69044485        0       0.00055954      -0.00022096       0.00144079
O        9.08935008       1.74975180       7.77136311        1       0.00030824      -0.00003138      -0.00073878
O       10.60620070       0.87399412      12.23159545        3       0.00066395      -0.00019782       0.10735976
C        7.57488905       2.62439004      10.00348962        2       0.00069450      -0.00024722       0.00108938
Ti       7.57596895       4.37346295      11.30974993        0       0.00101905       0.00023302      -0.00097649
Ti       9.08957193       3.49940716       8.69361926        0       0.00058260       0.00001872       0.00116689
O        7.57498470       4.37544678       7.77289006        1       0.00044095       0.00027822       0.00039824
O        9.09064701       3.49688877      12.23159545        3       0.00077911      -0.00061280       0.07418250
C        6.05963358       5.24817379      10.00437503        2       0.00059281       0.00002440       0.00105566
Ti       6.06202750       6.99878011      11.31119716        0       0.00137802      -0.00004124      -0.00095738
Ti       7.57584963       6.12246963       8.69842370        0       0.00056384       0.00015410       0.00130274
O        6.06272154       6.99811794       7.77507488        1       0.00062127      -0.00014135       0.00019934
O        7.57689294       6.12268501      12.23159545        3       0.00008702      -0.00051362       0.07117336
C        4.54565101       7.87191401      10.00357980        2       0.00073690       0.00025567       0.00126837
Ti       4.54565441       9.62163603      11.30867301        0       0.00104010       0.00022451      -0.00230163
Ti       6.05965155       8.74742407       8.69723357        0       0.00073016       0.00001100       0.00105414
O        4.54645922       9.62032120       7.77153347        1       0.00069869      -0.00039206      -0.00008312
O        6.05969434       8.75003921      12.23159545        3      -0.00000558       0.00015602       0.11988540
C        0.04070364       0.07007563      17.24869419       10      -0.00265322       0.00009526       0.00056630
C        1.24884418       0.77062614      17.23340214       10       0.00300485      -0.00040904      -0.03475050
C       -1.16892159       2.16790414      17.25401489       10      -0.00202383      -0.00020695      -0.01738103
C        0.04270993       2.86720124      17.23630446       10      -0.00170430      -0.00059194      -0.02309083
C       -2.38034911       4.26521534      17.24869419       10      -0.00190325      -0.00164845      -0.01388529
C       -1.16943865       4.96152116      17.23340214       10      -0.00179195       0.00034262      -0.01780545
C       -3.58610773       6.36751867      17.18558344       10      -0.00091657      -0.00056849       0.01175508
C       -2.38054396       7.04978709      17.14376122       10      -0.00115027       0.00319674      -0.13097479
C       -4.80169023       8.47109353      17.18558344       10      -0.00307157      -0.00035950       0.02963376
C       -3.60884397       9.17481300      17.14376122       10       0.00416444      -0.00103354      -0.11424206
C        2.46393587       0.06343452      17.18558344       10       0.00102609      -0.00301829       0.03104848
C        3.67875317       0.76753703      17.15350476       10      -0.00116677       0.00010588      -0.05514960
C        1.25462770       2.16859558      17.22235917       10      -0.00126895      -0.00063750      -0.01457092
C        2.46623625       2.86593618      17.20044476       10      -0.00189393       0.00144086      -0.02712104
C        0.04352931       4.26715963      17.22235917       10      -0.00156405       0.00006541      -0.02021842
C        1.25359533       4.96675592      17.20044476       10      -0.00096647       0.00044047      -0.02257366
C       -1.17491519       6.36789523      17.18558344       10      -0.00291460       0.00074905       0.00241760
C        0.04253865       7.06657895      17.15350476       10      -0.00125195      -0.00059983      -0.03633248
C       -2.38278394       8.46646184      16.69095556       10       0.00002934       0.00119820      -0.19538214
C       -1.15494709       9.17316421      17.14376122       10      -0.00133458      -0.00056443      -0.13661089
C        4.89336669       0.06204318      17.18558344       10      -0.00035303      -0.00017453       0.00454583
C        6.10830901       0.76986239      17.23340214       10      -0.00037866       0.00066369      -0.01458683
C        3.67931062       2.16376157      17.18583847       10      -0.00142252       0.00111818      -0.02398038
C        4.89228843       2.86598261      17.20044476       10      -0.00091901       0.00149165       0.00109432
C        2.46723117       4.26737391      17.19776315       10      -0.00135733       0.00123105      -0.03075800
C        3.67951737       4.96670293      17.19276238       10      -0.00210567       0.00062152      -0.02583452
C        1.25141383       6.36874126      17.18583847       10      -0.00052079       0.00025170      -0.04700564
C        2.46646972       7.06768594      17.20044476       10      -0.00092594       0.00092251      -0.01991369
C        0.03862894       8.47022166      17.18558344       10      -0.00054252      -0.00035279      -0.00953644
C        1.25925184       9.16871962      17.23340214       10      -0.00081488       0.00144105      -0.01197698
C        7.31691240       0.06919018      17.24869419       10       0.00142205       0.00208515      -0.01516780
C        8.52966849       0.76947397      17.25563271       10       0.00128335       0.00214651      -0.02269519
C        6.10364767       2.16780193      17.22235917       10      -0.00014504       0.00067527       0.00353217
C        7.31601236       2.86706563      17.23630446       10       0.00021378       0.00018477       0.00524259
C        4.89149918       4.26694624      17.19776315       10      -0.00239965       0.00146035      -0.00245975
C        6.10521344       4.96664156      17.20044476       10      -0.00236628       0.00059337       0.00621284
C        3.67903469       6.36633091      17.19776315       10      -0.00199691      -0.00025281      -0.02731832
C        4.89217495       7.06788179      17.20044476       10      -0.00190556      -0.00059444      -0.02482567
C        2.46712590       8.46552629      17.22235917       10      -0.00039862       0.00119969      -0.02399207
C        3.67919481       9.16619102      17.23630446       10      -0.00088410       0.00125554      -0.01834553
C        9.73905762       0.06883015      17.25401489       10      -0.00168724      -0.00050115      -0.01924747
C       10.94906803       0.76974378      17.25563271       10       0.00239147       0.00069243      -0.02699730
C        8.52758327       2.16754577      17.25401489       10       0.00002185       0.00005253      -0.01589710
C        9.73950967       2.86488995      17.25563271       10      -0.00027858      -0.00151931      -0.01447280
C        7.31547560       4.26660761      17.22235917       10      -0.00295711      -0.00064902       0.00790455
C        8.52848794       4.96153668      17.23340214       10      -0.00079911      -0.00235773      -0.01028773
C        6.10677784       6.36827606      17.18583847       10      -0.00174102       0.00028431      -0.02244765
C        7.31575849       7.06686830      17.15350476       10      -0.00031619      -0.00076790      -0.05355924
C        4.89029688       8.46594796      17.22235917       10      -0.00254978      -0.00114425      -0.02060153
C        6.09834521       9.16965976      17.23340214       10       0.00178680       0.00151428      -0.03163332
O       -2.40460961       8.47443861      15.36181398       11      -0.00285340       0.00330787      -0.00426023
