130
Lattice="12.12 0.0 0.0 -6.06 10.496227893867395 0.0 0.0 0.0 40.0" Properties=species:S:1:pos:R:3:tags:I:1:forces:R:3 energy=-1201.264995491449 stress="0.002802740899355229 1.362270645827047e-07 8.389003474716108e-08 1.362270645827047e-07 0.0028025177530703296 4.216635882119037e-08 8.389003474716108e-08 4.216635882119037e-08 0.0028580091926187754" pbc="T T F"
C       -0.00000508       0.00002929      10.00345251        2       0.00019026       0.00012374      -0.00250499
Ti       0.00008053       1.74892464      11.29815330        0      -0.00034515      -0.00062411       0.00376489
Ti       1.51510936       0.87474634       8.71316169        0      -0.00017970      -0.00030088      -0.00144658
O       -0.00006598       1.74955049       7.77500585        1       0.00005312       0.00017556       0.00156159
O        1.51472994       0.87439872      12.23008024        3       0.00057632       0.00059156      -0.20827591
C       -1.51489471       2.62388569      10.00431477        2       0.00002086       0.00048152      -0.00232420
Ti      -1.51392967       4.37391573      11.30012689        0      -0.00027561      -0.00007577       0.00378661
Ti      -0.00000400       3.49876101       8.71353157        0      -0.00022687      -0.00020635      -0.00120731
O       -1.51545323       4.37344292       7.77611716        1       0.00024802       0.00001725       0.00126718
O        0.00023858       3.49886074      12.23008024        3       0.00034792       0.00071989      -0.21332965
C       -3.02983872       5.24817915      10.00553789        2       0.00021351       0.00004699      -0.00255528
Ti      -3.02884459       6.99804528      11.30030444        0      -0.00007195       0.00014987       0.00380898
Ti      -1.51506685       6.12275432       8.71426810        0      -0.00015384       0.00014305      -0.00104935
O       -3.03027848       6.99711680       7.77623365        1       0.00020624       0.00001093       0.00132041
O       -1.51332514       6.12369205      12.23008024        3       0.00063587       0.00019612      -0.21064735
C       -4.54506048       7.87236904      10.00456265        2       0.00019524      -0.00030283      -0.00229470
Ti      -4.54504600       9.62176157      11.29841021        0      -0.00030361      -0.00004301       0.00387695
Ti      -3.02996524       8.74682567       8.71364213        0      -0.00019338       0.00004308      -0.00143716
O       -4.54487171       9.62132516       7.77513262        1       0.00005402       0.00007952       0.00159299
O       -3.02935075       8.74698053      12.23008024        3       0.00064499      -0.00012040      -0.21359127
C        3.02987727       0.00003684      10.00405123        2       0.00048261       0.00015270      -0.00218716
Ti       3.02977203       1.74917741      11.29902984        0      -0.00053048      -0.00074774       0.00370835
Ti       4.54512967       0.87479651       8.71461571        0       0.00001060      -0.00025325      -0.00127415
O        3.03052187       1.74968211       7.77584296        1      -0.00001047       0.00019687       0.00131656
O        4.54470744       0.87347091      12.23008024        3       0.00032679       0.00021010      -0.22417974
C        1.51494089       2.62388216      10.00403518        2       0.00034224       0.00071017      -0.00204934
Ti       1.51430200       4.37382502      11.29977167        0      -0.00045534      -0.00011297       0.00303806
Ti       3.03014947       3.49882895       8.71470783        0      -0.00004358      -0.00022618      -0.00096135
O        1.51534831       4.37348178       7.77594416        1       0.00003179       0.00006578       0.00121823
O        3.02892792       3.49889020      12.23008024        3       0.00000012       0.00054299      -0.22248095
C       -0.00000008       5.24798507      10.00438160        2       0.00032491       0.00013703      -0.00188490
Ti       0.00005967       6.99760933      11.30000600        0      -0.00041510       0.00017096       0.00330175
Ti       1.51505480       6.12278150       8.71418830        0      -0.00021612       0.00025940      -0.00082155
O       -0.00003683       6.99746241       7.77602412        1       0.00023157      -0.00005678       0.00133805
O        1.51381787       6.12340922      12.23008024        3      -0.00025098       0.00012184      -0.20546695
C       -1.51506186       7.87220177      10.00441450        2       0.00030366      -0.00007906      -0.00207542
Ti      -1.51482240       9.62086672      11.29983432        0      -0.00018636      -0.00048407       0.00378434
Ti       0.00001351       8.74688017       8.71417645        0      -0.00006160       0.00004823      -0.00115766
O       -1.51482644       9.62178812       7.77595422        1       0.00013860      -0.00002200       0.00134829
O       -0.00005563       8.74596620      12.23008024        3       0.00033036      -0.00025132      -0.20148583
C        6.05996869      -0.00001964      10.00510725        2       0.00000137      -0.00005314      -0.00235584
Ti       6.06004028       1.74834935      11.30260521        0       0.00009917      -0.00035500       0.00416095
Ti       7.57489692       0.87479523       8.71492923        0       0.00021527      -0.00006814      -0.00148851
O        6.06007574       1.74995309       7.77711833        1      -0.00004222       0.00002862       0.00080352
O        7.57517258       0.87344301      12.23008024        3      -0.00042419      -0.00001005      -0.22229881
C        4.54490158       2.62400934      10.00605703        2       0.00005895       0.00024078      -0.00237835
Ti       4.54416915       4.37391871      11.30304521        0       0.00003638       0.00030289       0.00326208
Ti       6.06002183       3.49881417       8.71705253        0       0.00030340      -0.00002715      -0.00173818
O        4.54549969       4.37331308       7.77722831        1      -0.00013607       0.00000627       0.00073020
O        6.06005345       3.49875946      12.23008024        3      -0.00017905      -0.00001441      -0.20004631
C        3.02990281       5.24811043      10.00528084        2      -0.00010197      -0.00011793      -0.00190516
Ti       3.02877917       6.99776378      11.30052590        0       0.00030876       0.00083818       0.00344036
Ti       4.54506255       6.12267342       8.71525632        0       0.00024016       0.00033926      -0.00124565
O        3.03027174       6.99718565       7.77620813        1      -0.00020731      -0.00003326       0.00125439
O        4.54423414       6.12347398      12.23008024        3      -0.00045159      -0.00056492      -0.21945654
C        1.51500560       7.87217603      10.00445268        2      -0.00009237      -0.00035722      -0.00205265
Ti       1.51463656       9.62056420      11.30041536        0       0.00031794      -0.00003842       0.00394833
Ti       3.02994687       8.74681735       8.71373270        0       0.00008990       0.00024385      -0.00131865
O        1.51486483       9.62185585       7.77609531        1      -0.00001913      -0.00018719       0.00137047
O        3.02909445       8.74655832      12.23008024        3      -0.00063091      -0.00060828      -0.21228934
C        9.09010332       0.00000889      10.00430494        2      -0.00038656      -0.00003691      -0.00247368
Ti       9.09044692       1.74894236      11.29950009        0       0.00044712      -0.00030094       0.00468394
Ti      10.60494323       0.87473613       8.71324816        0      -0.00004874      -0.00009530      -0.00155363
O        9.08949914       1.74972340       7.77611643        1      -0.00001542      -0.00003386       0.00132689
O       10.60560306       0.87408205      12.23008024        3       0.00012865       0.00002788      -0.21353158
C        7.57518499       2.62397939      10.00630437        2      -0.00024816       0.00004227      -0.00283383
Ti       7.57598031       4.37399150      11.30327582        0       0.00041283       0.00032759       0.00410806
Ti       9.08983712       3.49879091       8.71516648        0       0.00012049      -0.00012411      -0.00153268
O        7.57464499       4.37330997       7.77738420        1      -0.00006676      -0.00007040       0.00067021
O        9.09089496       3.49902298      12.23008024        3      -0.00027843       0.00032331      -0.21983434
C        6.06001860       5.24838786      10.00651212        2      -0.00029844      -0.00030951      -0.00272901
Ti       6.05988873       6.99830053      11.30000550        0       0.00038597       0.00081449       0.00430231
Ti       7.57491099       6.12266585       8.71538939        0       0.00015010       0.00022323      -0.00154319
O        6.06004229       6.99689419       7.77634627        1      -0.00015940      -0.00002438       0.00126854
O        7.57572805       6.12339164      12.23008024        3      -0.00009717      -0.00065652      -0.21821764
C        4.54505996       7.87233933      10.00453549        2      -0.00040239      -0.00060709      -0.00240561
Ti       4.54468281       9.62149555      11.29807797        0       0.00041384       0.00023184       0.00412547
Ti       6.06002066       8.74681611       8.71345825        0       0.00001538       0.00012625      -0.00160384
O        4.54483890       9.62137988       7.77519785        1      -0.00020238      -0.00006357       0.00165690
O        6.05983235       8.74829127      12.23008024        3      -0.00018597      -0.00037369      -0.21645930
C        0.04503976       0.06760906      15.59850129       10      -0.00494261      -0.00349188       0.10615717
C        1.25683418       0.76724901      15.59850129       10       0.00447299       0.00127423       0.06996753
C       -1.16705204       2.16669584      15.59850129       10       0.00114438      -0.00593700       0.07072236
C        0.04501267       2.86636118      15.59850129       10      -0.00005627       0.00089795       0.06019465
C       -2.37903710       4.26575277      15.59850129       10       0.00167834      -0.00308055       0.06491521
C       -1.16687012       4.96567435      15.59850129       10       0.00004946       0.00094847       0.06740671
C       -3.59114313       6.36537492      15.59850129       10       0.00114601      -0.00414680       0.06522335
C       -2.37881334       7.06507253      15.59850129       10      -0.00237265       0.00289454       0.06672205
C       -4.80310462       8.46469965      15.59850129       10      -0.00383939      -0.00195050       0.06697250
C       -3.59112272       9.16444414      15.59850129       10       0.00442941      -0.00052900       0.06059040
C        2.46884097       0.06772958      15.59850129       10      -0.00179448       0.00231671       0.07080792
C        3.68092611       0.76724940      15.59850129       10      -0.00242790      -0.00351207       0.06464929
C        1.25698895       2.16659817      15.59850129       10      -0.00069226      -0.00268778       0.07392498
C        2.46883247       2.86635977      15.59850129       10      -0.00081301       0.00100280       0.06169549
C        0.04506067       4.26572659      15.59850129       10      -0.00118333      -0.00111225       0.05306870
C        1.25699599       4.96572749      15.59850129       10      -0.00002528       0.00137839       0.06721179
C       -1.16707971       6.36504897      15.59850129       10      -0.00522108      -0.00228507       0.06122336
C        0.04509359       7.06486677      15.59850129       10      -0.00181537       0.00066716       0.06837182
C       -2.37918555       8.46463338      15.59850129       10      -0.00151984       0.00117455       0.05568542
C       -1.16694751       9.16421742      15.59850129       10      -0.00003650      -0.00628469       0.06601913
C        4.89287662       0.06765324      15.59850129       10      -0.00095816       0.00588890       0.06313400
C        6.10497483       0.76716410      15.59850129       10      -0.00236654      -0.00338950       0.06688647
C        3.68090703       2.16677137      15.59850129       10       0.00153408      -0.00053097       0.07100546
C        4.89270133       2.86646815      15.59850129       10       0.00080978      -0.00143267       0.08784664
C        2.46903414       4.26568958      15.59850129       10       0.00141627       0.00074002       0.06386323
C        3.68079494       4.96587206      15.59850129       10      -0.00151227      -0.00077588       0.06770954
C        1.25724986       6.36504248      15.59850129       10      -0.00096278       0.00146581       0.06633674
C        2.46896336       7.06506262      15.59850129       10      -0.00148668       0.00033686       0.06562009
C        0.04492811       8.46449126      15.59850129       10       0.00231730       0.00335799       0.07077973
C        1.25688517       9.16416604      15.59850129       10       0.00101343      -0.00601619       0.06539512
C        7.31704195       0.06762125      15.59850129       10      -0.00013575       0.00613699       0.06136088
C        8.52901505       0.76715905      15.59850129       10       0.00185869      -0.00118709       0.06700770
C        6.10478587       2.16686131      15.59850129       10       0.00171519      -0.00091336       0.06422781
C        7.31690615       2.86634015      15.59850129       10       0.00534555       0.00244765       0.09380540
C        4.89296832       4.26606124      15.59850129       10      -0.00006516      -0.00155327       0.06593211
C        6.10491533       4.96603190      15.59850129       10       0.00123269       0.00135558       0.09888537
C        3.68120829       6.36529893      15.59850129       10       0.00052036      -0.00106784       0.06268200
C        4.89293185       7.06520368      15.59850129       10       0.00074918       0.00281767       0.06682472
C        2.46914560       8.46459361      15.59850129       10       0.00200621       0.00345141       0.05901299
C        3.68102089       9.16441634      15.59850129       10       0.00196830      -0.00235026       0.06333841
C        9.74125843       0.06773868      15.59850129       10      -0.00478515       0.00036614       0.06552758
C       10.95311430       0.76726959      15.59850129       10       0.00408674       0.00209289       0.06660301
C        8.52882505       2.16677975      15.59850129       10       0.00211982      -0.00307431       0.07100258
C        9.74102445       2.86634722      15.59850129       10      -0.00100492       0.00424598       0.06032960
C        7.31695786       4.26603799      15.59850129       10      -0.00000207      -0.00102943       0.06639577
C        8.52925478       4.96584939      15.59850129       10      -0.00151338       0.00315173       0.07225227
C        6.10501618       6.36536251      15.59850129       10      -0.00006317      -0.00086267       0.07092444
C        7.31709509       7.06514581      15.59850129       10      -0.00122316       0.00601425       0.06324114
C        4.89322557       8.46472663      15.59850129       10      -0.00478962      -0.00124258       0.06517092
C        6.10496676       9.16446098      15.59850129       10       0.00493408       0.00354520       0.06420363
