130
Lattice="12.12 0.0 0.0 -6.06 10.496227893867395 0.0 0.0 0.0 40.0" Properties=species:S:1:pos:R:3:tags:I:1:forces:R:3 energy=-1200.74888710217 stress="0.0027557217908698306 -2.98875035095354e-08 -1.6465289014297192e-07 -2.98875035095354e-08 0.0027559298044375607 -5.85069855191501e-07 -1.6465289014297192e-07 -5.85069855191501e-07 0.0029438052164351327" pbc="T T F"
C        0.00000717       0.00002503      10.00111272        2       0.00001505       0.00000983       0.00200846
Ti       0.00009065       1.74996285      11.29223544        0       0.00030452      -0.00004225       0.00005268
Ti       1.51507616       0.87468042       8.70976826        0       0.00009056       0.00010320       0.00254630
O       -0.00007724       1.74961305       7.77132123        1      -0.00007846      -0.00014774       0.00171536
O        1.51376408       0.87407738      12.23008024        3      -0.00021473      -0.00022008      -0.24868153
C       -1.51506493       2.62407285      10.00249873        2       0.00019314      -0.00028238       0.00270955
Ti      -1.51438165       4.37418891      11.29559314        0       0.00037600      -0.00001843       0.00118295
Ti      -0.00000406       3.49909353       8.71024676        0       0.00002876       0.00004001       0.00275710
O       -1.51540475       4.37338388       7.77202274        1      -0.00066334      -0.00023264       0.00279625
O        0.00028572       3.49916610      12.23008024        3      -0.00003991      -0.00026415      -0.25137566
C       -3.03004061       5.24804393      10.00334704        2       0.00002971      -0.00004671       0.00381290
Ti      -3.02882187       6.99759334      11.29596924        0       0.00014811       0.00010589       0.00143478
Ti      -1.51505566       6.12281680       8.71090311        0      -0.00010999      -0.00014706       0.00323139
O       -3.03028797       6.99715537       7.77209640        1      -0.00058794      -0.00033349       0.00306380
O       -1.51291392       6.12401393      12.23008024        3       0.00004049      -0.00010664      -0.25318458
C       -4.54505033       7.87211020      10.00278661        2      -0.00001006       0.00021876       0.00291247
Ti      -4.54455039       9.62159797      11.29333206        0      -0.00003157       0.00025926       0.00052382
Ti      -3.02977641       8.74669613       8.71046418        0      -0.00001272      -0.00009649       0.00328499
O       -4.54485790       9.62130194       7.77143063        1      -0.00010010      -0.00021760       0.00206102
O       -3.02914213       8.74700730      12.23008024        3      -0.00014605       0.00005984      -0.25105785
C        3.03000875       0.00001484      10.00217739        2      -0.00023374      -0.00025426       0.00253194
Ti       3.02954229       1.74884142      11.29550228        0      -0.00033444      -0.00034751       0.00116579
Ti       4.54507226       0.87465349       8.71131246        0       0.00000369       0.00017215       0.00414528
O        3.03045897       1.74966180       7.77199034        1       0.00035225       0.00008197       0.00292645
O        4.54424883       0.87314453      12.23008024        3      -0.00036300      -0.00056971      -0.25205281
C        1.51502870       2.62409163      10.00216213        2      -0.00023777      -0.00029278       0.00256122
Ti       1.51451386       4.37440458      11.29514321        0      -0.00034441       0.00005593       0.00097792
Ti       3.03002062       3.49877811       8.71136861        0       0.00014427       0.00002404       0.00411972
O        1.51533312       4.37341589       7.77195501        1       0.00036107      -0.00028930       0.00246628
O        3.02854692       3.49849558      12.23008024        3      -0.00051499      -0.00035101      -0.25160408
C       -0.00006566       5.24788258      10.00192577        2      -0.00011579      -0.00001594       0.00263415
Ti      -0.00008079       6.99725022      11.29422638        0       0.00008110      -0.00017688       0.00004930
Ti       1.51501808       6.12288386       8.71077218        0       0.00018427      -0.00016932       0.00270594
O       -0.00004099       6.99739906       7.77185593        1      -0.00023260      -0.00007425       0.00196377
O        1.51321908       6.12399657      12.23008024        3      -0.00019725      -0.00016885      -0.25353246
C       -1.51523127       7.87213010      10.00187081        2       0.00000151      -0.00013383       0.00268569
Ti      -1.51410479       9.62032930      11.29495081        0      -0.00004871      -0.00048071       0.00083040
Ti       0.00003970       8.74679298       8.71066109        0       0.00002708      -0.00000023       0.00262847
O       -1.51489893       9.62178408       7.77193731        1      -0.00014854       0.00024538       0.00255446
O        0.00013621       8.74492667      12.23008024        3      -0.00012806      -0.00028677      -0.25180373
C        6.05995885       0.00008402      10.00283811        2      -0.00004311      -0.00029012       0.00335517
Ti       6.06005530       1.74851234      11.29679119        0      -0.00000468      -0.00044403       0.00180064
Ti       7.57495356       0.87465805       8.71140741        0      -0.00011988       0.00014193       0.00435144
O        6.06004484       1.74977286       7.77256975        1       0.00011225       0.00041496       0.00431940
O        7.57529261       0.87317972      12.23008024        3       0.00029832      -0.00061174      -0.25272552
C        4.54495378       2.62397927      10.00382172        2      -0.00018119      -0.00030368       0.00434548
Ti       4.54441073       4.37380906      11.29653279        0      -0.00034604      -0.00010884       0.00218461
Ti       6.05999639       3.49870890       8.71253155        0      -0.00010902      -0.00000789       0.00546966
O        4.54535543       4.37331863       7.77262247        1       0.00056621      -0.00013406       0.00441986
O        6.05997696       3.49854806      12.23008024        3      -0.00010495      -0.00027334      -0.24113164
C        3.03007179       5.24798598      10.00308575        2      -0.00016654      -0.00000521       0.00352064
Ti       3.02861772       6.99743137      11.29559625        0      -0.00053447      -0.00015242       0.00122991
Ti       4.54499036       6.12279005       8.71157974        0       0.00002730      -0.00027573       0.00448443
O        3.03028230       6.99720487       7.77208050        1       0.00058538      -0.00016415       0.00286049
O        4.54420556       6.12341223      12.23008024        3      -0.00029416       0.00033335      -0.25209494
C        1.51514690       7.87215597      10.00170661        2      -0.00012391      -0.00007561       0.00273616
Ti       1.51406444       9.62022977      11.29513365        0      -0.00014885      -0.00059336       0.00064039
Ti       3.02980617       8.74672682       8.71066125        0       0.00007194      -0.00009805       0.00339815
O        1.51493006       9.62182731       7.77199409        1       0.00009640       0.00039870       0.00270607
O        3.02890255       8.74650462      12.23008024        3       0.00020187       0.00007312      -0.25120478
C        9.09001420       0.00006878      10.00245380        2       0.00020192      -0.00017112       0.00288773
Ti       9.09036880       1.74865590      11.29542079        0       0.00033742      -0.00047352       0.00133012
Ti      10.60490320       0.87462215       8.70998086        0      -0.00001170       0.00000905       0.00301203
O        9.08957868       1.74968164       7.77207701        1      -0.00042615       0.00020825       0.00333641
O       10.60667998       0.87374090      12.23008024        3       0.00022695      -0.00006441      -0.25120409
C        7.57508689       2.62391325      10.00388262        2       0.00015336      -0.00021470       0.00460412
Ti       7.57571054       4.37372692      11.29653284        0       0.00009746      -0.00018872       0.00197285
Ti       9.09000503       3.49875018       8.71154929        0      -0.00020292      -0.00011221       0.00465026
O        7.57472495       4.37331551       7.77267891        1      -0.00035784      -0.00014576       0.00468744
O        9.09091362       3.49852165      12.23008024        3       0.00059283      -0.00032481      -0.25011618
C        6.05997247       5.24824286      10.00393789        2       0.00005020       0.00011285       0.00469169
Ti       6.05984948       6.99812436      11.29539202        0      -0.00019073       0.00024246       0.00132650
Ti       7.57501353       6.12280852       8.71169077        0      -0.00023021      -0.00025065       0.00480378
O        6.06003563       6.99696983       7.77218545        1       0.00010152      -0.00042499       0.00363321
O        7.57541106       6.12332684      12.23008024        3       0.00016190       0.00043467      -0.25027474
C        4.54509570       7.87211793      10.00272571        2       0.00007040       0.00026693       0.00309278
Ti       4.54469781       9.62151004      11.29447268        0       0.00001699      -0.00013133       0.00077368
Ti       6.05994224       8.74681814       8.71021216        0      -0.00004035      -0.00007402       0.00334697
O        4.54481422       9.62135902       7.77154072        1       0.00010976      -0.00010354       0.00232182
O        6.05998470       8.74914954      12.23008024        3       0.00000695       0.00031853      -0.25052891
C        0.04520118       0.06761244      15.45639603       10      -0.00131306       0.00030963       0.11244772
C        1.25709097       0.76729024      15.45639603       10      -0.00551718      -0.00172122       0.08426532
C       -1.16701438       2.16649756      15.45639603       10       0.00176869       0.00194728       0.07557663
C        0.04492848       2.86653601      15.45639603       10       0.00179852      -0.00167276       0.07492648
C       -2.37908799       4.26583325      15.45639603       10      -0.00111424       0.00092267       0.07596366
C       -1.16682568       4.96590945      15.45639603       10       0.00056798      -0.00059052       0.06378118
C       -3.59109424       6.36529648      15.45639603       10      -0.00307239       0.00222494       0.07547706
C       -2.37868997       7.06511710      15.45639603       10      -0.00088762      -0.00127249       0.06256651
C       -4.80330377       8.46483095      15.45639603       10       0.00307625       0.00084286       0.07193401
C       -3.59101846       9.16440520      15.45639603       10       0.00010122       0.00006231       0.07739390
C        2.46879760       0.06775831      15.45639603       10      -0.00052785      -0.00017978       0.07831382
C        3.68106439       0.76724800      15.45639603       10      -0.00456841      -0.00001346       0.07676415
C        1.25682757       2.16646029      15.45639603       10       0.00349033       0.00133699       0.08017641
C        2.46875244       2.86654568      15.45639603       10      -0.00075998       0.00046617       0.07674531
C        0.04501533       4.26571912      15.45639603       10      -0.00123312       0.00012726       0.08081327
C        1.25694592       4.96589410      15.45639603       10      -0.00167142       0.00209628       0.06182759
C       -1.16702201       6.36515378      15.45639603       10      -0.00270226       0.00173239       0.08186541
C        0.04519189       7.06506357      15.45639603       10      -0.00073465       0.00093923       0.05341198
C       -2.37934569       8.46468819      15.45639603       10       0.00199565       0.00094194       0.08216682
C       -1.16697097       9.16412710      15.45639603       10       0.00153262       0.00243655       0.05803733
C        4.89291900       0.06781160      15.45639603       10      -0.00226736      -0.00053342       0.07816099
C        6.10505037       0.76722653      15.45639603       10       0.00023650      -0.00097423       0.08181490
C        3.68078932       2.16682939      15.45639603       10       0.00275360       0.00056953       0.07060269
C        4.89273554       2.86656877      15.45639603       10       0.00312705       0.00036416       0.10099711
C        2.46905707       4.26577878      15.45639603       10       0.00065751      -0.00176169       0.07722179
C        3.68079419       4.96593815      15.45639603       10      -0.00047282       0.00212810       0.08143410
C        1.25735641       6.36516342      15.45639603       10      -0.00305643       0.00009135       0.08627083
C        2.46897646       7.06515005      15.45639603       10      -0.00251853      -0.00031272       0.05915532
C        0.04493942       8.46472388      15.45639603       10      -0.00014217       0.00136734       0.08865179
C        1.25678366       9.16428437      15.45639603       10       0.00242841       0.00087810       0.05661050
C        7.31726081       0.06802366      15.45639603       10      -0.00167026      -0.00211146       0.07858438
C        8.52925765       0.76735545      15.45639603       10      -0.00183421      -0.00069819       0.07642375
C        6.10480681       2.16708872      15.45639603       10       0.00087372      -0.00073742       0.05868721
C        7.31687053       2.86652752      15.45639603       10       0.00282835      -0.00139892       0.10677658
C        4.89301305       4.26604186      15.45639603       10       0.00187571      -0.00198938       0.05839264
C        6.10490775       4.96592881      15.45639603       10       0.00122171       0.00030841       0.11306920
C        3.68141729       6.36533693      15.45639603       10       0.00073690      -0.00005892       0.07754835
C        4.89310862       7.06526920      15.45639603       10      -0.00335195      -0.00096165       0.07738374
C        2.46904763       8.46476810      15.45639603       10       0.00450786       0.00043714       0.08388944
C        3.68081831       9.16437324      15.45639603       10       0.00089204       0.00048590       0.07878593
C        9.74146016       0.06778702      15.45639603       10      -0.00026549       0.00036197       0.07453242
C       10.95331362       0.76726903      15.45639603       10      -0.00288972      -0.00065173       0.08188687
C        8.52896817       2.16697031      15.45639603       10       0.00084853       0.00155983       0.06838181
C        9.74105425       2.86663712      15.45639603       10       0.00324912      -0.00212009       0.07762718
C        7.31685353       4.26602659      15.45639603       10      -0.00040446       0.00072641       0.05983533
C        8.52913655       4.96591188      15.45639603       10       0.00106404      -0.00063391       0.08139235
C        6.10521944       6.36533332      15.45639603       10      -0.00164823       0.00185837       0.06707019
C        7.31726501       7.06528059      15.45639603       10      -0.00188297      -0.00154441       0.07903767
C        4.89309088       8.46480480      15.45639603       10       0.00550992       0.00206674       0.07194534
C        6.10490795       9.16449210      15.45639603       10       0.00142649       0.00000246       0.08061410
