132
Lattice="12.12 0.0 0.0 -6.06 10.496227893867395 0.0 0.0 0.0 40.0" Properties=species:S:1:pos:R:3:tags:I:1:forces:R:3 energy=-1211.0434030328859 stress="0.0028833134614141363 4.530972579972203e-06 -4.553568647476473e-06 4.530972579972203e-06 0.0028864930481097163 -1.2626272312525928e-06 -4.553568647476473e-06 -1.2626272312525928e-06 0.0025834545503626233" pbc="T T F"
C       -0.13321775       0.10175897      10.00885339        2       0.00020555      -0.00017436       0.00108512
Ti      -0.13806514       1.85188084      11.31999676        0      -0.00089212      -0.00061756       0.00081675
Ti       1.38127618       0.97726503       8.72051781        0       0.00351961      -0.00122606       0.00004410
O       -0.13437633       1.85198094       7.78259888        1      -0.00063139      -0.00036017       0.00218752
O        1.38575129       0.97528731      12.23008024        3      -0.00116083      -0.00084889       0.03889487
C       -1.64824994       2.72488664      10.01411047        2      -0.00136315       0.00095930       0.00467299
Ti      -1.64348436       4.48012828      11.29260084        0       0.00327937      -0.00038193      -0.00245587
Ti      -0.13192168       3.60028144       8.72035277        0      -0.00371346      -0.00197492      -0.00015520
O       -1.64772209       4.47338615       7.78017706        1      -0.00115141       0.00139077       0.00158571
O       -0.12978188       3.60615342      12.23008024        3       0.00034024       0.00100853      -0.06459907
C       -3.16293168       5.35058069      10.00440492        2       0.00093562      -0.00064817       0.00388397
Ti      -3.16403011       7.09890763      11.30539390        0      -0.00029770      -0.00024001      -0.00377694
Ti      -1.64846442       6.22483140       8.71471456        0      -0.00200697       0.00036044       0.00508009
O       -3.16255104       7.09933818       7.77851226        1      -0.00013626       0.00139541      -0.00033531
O       -1.64990395       6.22757548      12.23008024        3      -0.00161149      -0.00100341       0.02647838
C       -4.67825730       7.97436203      10.00434755        2      -0.00149384      -0.00134890       0.00231711
Ti      -4.67738782       9.72322768      11.30190753        0      -0.00264603      -0.00257926      -0.00081358
Ti      -3.16309362       8.84945851       8.71713958        0      -0.00096061       0.00076969      -0.00280878
O       -4.67886292       9.72517589       7.78036503        1       0.00075054      -0.00318919       0.00229051
O       -3.16179314       8.84868018      12.23008024        3       0.00060503      -0.00121662       0.01745970
C        2.89689202       0.10243179      10.00539280        2      -0.00070367       0.00030267       0.00370440
Ti       2.89655278       1.85178604      11.30414989        0      -0.00023087       0.00178486      -0.00116983
Ti       4.41149142       0.97694935       8.71718002        0      -0.00146316       0.00139990      -0.00120095
O        2.89498959       1.85126000       7.78026901        1       0.00198895       0.00091923       0.00292831
O        4.41283275       0.97752841      12.23008024        3       0.00049948      -0.00126926       0.02336854
C        1.38106321       2.72666116      10.00898675        2      -0.00036860      -0.00091828       0.00151253
Ti       1.38034476       4.47429487      11.30615579        0       0.00044327      -0.00091315      -0.00075079
Ti       2.89757521       3.60143248       8.71774773        0      -0.00273833      -0.00395574      -0.00034091
O        1.37991768       4.47467890       7.78070407        1      -0.00037631      -0.00083396      -0.00088295
O        2.89793894       3.60113771      12.23008024        3       0.00243629       0.00133328       0.02984583
C       -0.13373958       5.35053998      10.00642390        2       0.00025328       0.00102195       0.00153417
Ti      -0.13387078       7.10129966      11.30336405        0      -0.00048714      -0.00136548       0.00138076
Ti       1.38216628       6.22530472       8.71713103        0       0.00322716      -0.00077773       0.00212799
O       -0.13328026       7.09913594       7.77862495        1      -0.00271981      -0.00022072       0.00001625
O        1.38131629       6.22683072      12.23008024        3       0.00038604      -0.00213110       0.01504014
C       -1.64798623       7.97447923      10.00467340        2       0.00018321      -0.00053156       0.00115840
Ti      -1.64881551       9.72485819      11.30378875        0       0.00061970      -0.00139917      -0.00351038
Ti      -0.13291166       8.84919417       8.71713754        0      -0.00299306       0.00093393       0.00191580
O       -1.64825197       9.72397358       7.77866964        1      -0.00067104      -0.00133596       0.00274010
O       -0.13348196       8.84981368      12.23008024        3      -0.00425469       0.00094791       0.03592715
C        5.92701397       0.10236300      10.00438614        2      -0.00070068      -0.00122795       0.00141372
Ti       5.92786067       1.85315216      11.30444242        0      -0.00164788      -0.00146464      -0.00342099
Ti       7.44163323       0.97710275       8.71400263        0      -0.00248813       0.00128563       0.00268435
O        5.92785599       1.85113927       7.77828755        1      -0.00065206      -0.00043521       0.00115089
O        7.43803848       0.97687009      12.23008024        3      -0.00153476       0.00063190       0.00865169
C        4.41144072       2.72686372      10.00382697        2      -0.00058309       0.00097005       0.00340987
Ti       4.41090020       4.47551156      11.30271808        0      -0.00111100      -0.00120803      -0.00357578
Ti       5.92677147       3.60061584       8.71503816        0       0.00067488       0.00392251       0.00043629
O        4.41146159       4.47428781       7.77743200        1      -0.00160831       0.00465199       0.00027082
O        5.92497121       3.60052097      12.23008024        3       0.00332421       0.00052704      -0.00194345
C        2.89748812       5.35122955      10.00350180        2      -0.00107130      -0.00015344       0.00224702
Ti       2.89668607       7.09936360      11.30212509        0      -0.00001070       0.00013749      -0.00367388
Ti       4.41162273       6.22513969       8.71481761        0      -0.00027001      -0.00075598       0.00227231
O        2.89530406       7.10091699       7.77750651        1       0.00488538      -0.00582273       0.00154010
O        4.41143581       6.22477643      12.23008024        3      -0.00038785      -0.00062315       0.00504956
C        1.38168689       7.97411658      10.00443262        2       0.00037626      -0.00043665      -0.00016080
Ti       1.38028852       9.72503302      11.30575365        0      -0.00019327      -0.00170407       0.00138800
Ti       2.89705746       8.84833667       8.71858950        0       0.00223296      -0.00377064       0.00167786
O        1.38291761       9.72391896       7.77915738        1      -0.00189081       0.00188322      -0.00046452
O        2.89422594       8.84780625      12.23008024        3       0.00138401      -0.00031343       0.03320810
C        8.95650206       0.10240128      10.00780092        2      -0.00155200      -0.00126622       0.00164604
Ti       8.95560320       1.84012714      11.29055148        0      -0.00012548      -0.00278869      -0.00473590
Ti      10.47330457       0.97580047       8.72008490        0      -0.00013344       0.00310104       0.00031135
O        8.95919687       1.85184471       7.77930616        1      -0.00185254      -0.00045339       0.00238809
O       10.47215996       0.96264412      12.23008024        3      -0.00124215      -0.00062777      -0.22493836
C        7.44285657       2.72492673      10.00505800        2       0.00032399      -0.00055748       0.00497499
Ti       7.43436240       4.47978805      11.29003304        0      -0.00190699       0.00087541      -0.00544938
Ti       8.95679560       3.60045575       8.71986980        0      -0.00025074      -0.00000114      -0.00101783
O        7.44430534       4.47411326       7.77854956        1      -0.00200379       0.00092721       0.00099263
O        8.94366107       3.60983451      12.23008024        3       0.00131903      -0.00011717       0.23606123
C        5.92498641       5.35115716      10.00224911        2       0.00325128      -0.00260175       0.00227101
Ti       5.92588451       7.09964861      11.30298130        0       0.00000082       0.00055973      -0.00302908
Ti       7.44229461       6.22525472       8.71510021        0      -0.00342244      -0.00432386       0.00342826
O        5.92761241       7.10076877       7.77761755        1      -0.00302776      -0.00196266       0.00080689
O        7.44145301       6.22496501      12.23008024        3       0.00070169      -0.00370607       0.00885306
C        4.41142734       7.97197308      10.00379151        2      -0.00130667       0.00054592       0.00100129
Ti       4.41296776       9.72544945      11.31051455        0       0.00088518       0.00058401       0.00054689
Ti       5.92666898       8.84818624       8.71819670        0       0.00110381       0.00359344       0.00111975
O        4.41154415       9.72536638       7.78127101        1       0.00139305       0.00033471      -0.00044416
O        5.92867510       8.84624094      12.23008024        3      -0.00010579      -0.00386230       0.02632952
C        0.27023411      -0.10274372      16.28309641       10      -0.00102456       0.00052635      -0.02109197
C        1.47942009       0.59896978      16.29148464       10       0.00072812       0.00317641       0.01422141
C       -0.92397538       1.98758532      16.25872574       10      -0.00251549       0.00180497       0.66228024
C        0.26743142       2.69668764      16.26636448       10      -0.00091779      -0.00310369       0.06239835
C       -2.16153570       4.12591874      16.25872019       10       0.00360287      -0.00084518       0.35285870
C       -0.94983942       4.80240480      16.26636192       10       0.00040525      -0.00189621       0.04930078
C       -3.37246685       6.20636268      16.28309586       10       0.00235614      -0.00139929       0.00972264
C       -2.15969906       6.90208114      16.29148444       10      -0.00148953      -0.00147680       0.02629287
C       -4.58396481       8.29845607      16.28120347       10       0.00096700       0.00009531       0.00663678
C       -3.37179861       8.99763414      16.29249313       10       0.00082638       0.00302660      -0.01493536
C        2.68973242      -0.10008457      16.29351815       10      -0.00065458       0.00154971      -0.00606589
C        3.90004862       0.60033248      16.29249304       10       0.00047345       0.00223546      -0.00954963
C        1.48312318       1.99690882      16.28309662       10      -0.00233717       0.00216307      -0.01318808
C        2.68975021       2.69963574      16.27403649       10       0.00088859       0.00253519      -0.00080143
C        0.26379299       4.09933753      16.24023660       10      -0.00155682      -0.00229334       0.15551537
C        1.47445287       4.79840488      16.25190655       10      -0.00122730       0.00018795      -0.02686695
C       -0.94741441       6.20523746      16.28309586       10       0.00041271      -0.00129485      -0.00126864
C        0.26492070       6.89961149      16.27403659       10      -0.00083251      -0.00101931       0.00126484
C       -2.15974884       8.30000779      16.29351836       10      -0.00040540       0.00189490      -0.00547316
C       -0.94784092       8.99764810      16.29249313       10      -0.00049176      -0.00054853      -0.00638614
C        5.11037354      -0.10016119      16.29351815       10       0.00254113       0.00026538      -0.00492475
C        6.32110813       0.59904518      16.29148464       10       0.00124521       0.00283386       0.01107272
C        3.90001478       1.99961406      16.28120334       10      -0.00027411       0.00063125       0.01070075
C        5.11032156       2.69983522      16.27403649       10      -0.00058094       0.00340312      -0.01461176
C        2.68769429       4.09891243      16.26015299       10      -0.00295795       0.00341992      -0.02737842
C        3.89912754       4.79928001      16.25736513       10       0.00102298      -0.00004538       0.02221624
C        1.47599893       6.19888791      16.26015289       10      -0.00012289       0.00133050      -0.02499986
C        2.68765989       6.89877871      16.25736502       10       0.00184720      -0.00077351       0.03355374
C        0.26400403       8.29821036      16.28120347       10      -0.00072973       0.00136751       0.00834667
C        1.47544661       8.99686082      16.27403634       10      -0.00142812      -0.00095427      -0.00055087
C        7.53083902      -0.10202795      16.28309641       10       0.00265471       0.00014704      -0.00548482
C        8.74453520       0.60163706      16.26636429       10       0.00542837      -0.00122029       0.03312632
C        6.31744316       1.99722572      16.28309662       10       0.00094085      -0.00071390       0.00750064
C        7.53248797       2.69814291      16.26636448       10       0.00029487      -0.00046829       0.00787275
C        5.11113006       4.09934411      16.26015299       10       0.00077832       0.00238697      -0.01628051
C        6.32436004       4.79919239      16.25190655       10       0.00274394       0.00023092      -0.05028844
C        3.89961296       6.19906960      16.25428713       10       0.00079058       0.00168674      -0.02879574
C        5.11152454       6.89940391      16.25736502       10       0.00271573       0.00200038       0.01950047
C        2.68787699       8.29819112      16.26015272       10      -0.00150298       0.00193326      -0.02199154
C        3.89986695       8.99988990      16.25190614       10       0.00200117       0.00195646      -0.04489670
C        9.95990054      -0.09805958      16.24023655       10       0.00087955      -0.00010028       0.17185083
C       11.17652480       0.60048062      16.26636429       10       0.00367425       0.00237651       0.03369839
C        8.72501322       1.99021852      16.25872574       10       0.00159781      -0.00365929       0.34144302
C        9.95779032       2.70347949      16.01436648       10      -0.00231534       0.00059396      -2.08276833
C        7.53527924       4.10047388      16.24023660       10       0.00341668      -0.00243804       0.16460855
C        8.74873288       4.80398003      16.26636192       10      -0.00078200      -0.00123733       0.02289943
C        6.32363112       6.19963040      16.26015289       10       0.00081605       0.00247410      -0.01109671
C        7.53518390       6.90017922      16.27403659       10       0.00020210       0.00020984      -0.00817023
C        5.11187661       8.29887529      16.26015272       10      -0.00245983       0.00180426      -0.01844975
C        6.32452733       8.99675742      16.27403634       10       0.00249393       0.00409374      -0.01469063
O       10.02743520       2.62930752      14.49272305       11      -0.00024518       0.00496512      -0.00173859
H        9.38545806       3.18975671      13.99569903       12       0.00272772      -0.00123217       0.00338832
