132
Lattice="12.12 0.0 0.0 -6.06 10.496227893867395 0.0 0.0 0.0 40.0" Properties=species:S:1:pos:R:3:tags:I:1:forces:R:3 energy=-1209.2544164725737 stress="0.002754267108160088 1.8126001569389606e-05 -1.0425135192322983e-05 1.8126001569389606e-05 0.0027339043695103864 -6.198569935144766e-06 -1.0425135192322983e-05 -6.198569935144766e-06 0.002817806210830762" pbc="T T F"
C       -0.13097029       0.17929095       9.99892374        2      -0.00395358      -0.00032756      -0.00220180
Ti      -0.14252844       1.92494978      11.32152272        0      -0.00048208       0.00025694      -0.00393884
Ti       1.37759617       1.05843366       8.71437530        0       0.00330006      -0.00302329       0.00274590
O       -0.14137577       1.93539699       7.77906857        1      -0.00269660       0.00200777      -0.00275501
O        1.38371659       1.05394417      12.23008024        3      -0.00239713      -0.00065973      -0.19365069
C       -1.65562017       2.80290618      10.02573283        2      -0.00312612      -0.00193469      -0.00109986
Ti      -1.64359869       4.57505352      11.26027071        0      -0.00165726       0.00179095      -0.00076214
Ti      -0.13520267       3.68052025       8.71782650        0      -0.00273151      -0.00178594       0.00110141
O       -1.65106585       4.55086668       7.77460004        1       0.00244776      -0.00186262      -0.00343379
O       -0.12331098       3.69619282      12.23008024        3      -0.00270277      -0.00277212      -0.40953153
C       -3.16743744       5.43854996       9.99028151        2      -0.00197474       0.00009553      -0.00368843
Ti      -3.16960859       7.18326814      11.29851238        0       0.00255842      -0.00105982      -0.00342441
Ti      -1.65366275       6.30806541       8.70266809        0       0.00084898       0.00172583      -0.00021667
O       -3.16508765       7.18382824       7.76526531        1      -0.00165749      -0.00406671       0.00122691
O       -1.65474426       6.31309755      12.23008024        3      -0.00041002      -0.00401595      -0.25210940
C       -4.68089273       8.05664847       9.99434856        2      -0.00290154      -0.00222527       0.00013694
Ti      -4.67850851       9.80114261      11.28940832        0       0.00078433      -0.00174640       0.00179103
Ti      -3.16539651       8.93306707       8.70757551        0       0.00098073      -0.00018223       0.00184444
O       -4.68083435       9.80776517       7.76887332        1       0.00057883       0.00070610       0.00118168
O       -3.16520082       8.93038214      12.23008024        3      -0.00069775       0.00071876      -0.24436471
C        2.89416363       0.18459198      10.00077891        2       0.00123719      -0.00351428       0.00085136
Ti       2.89275634       1.93306108      11.29519921        0      -0.00293119      -0.00575699      -0.00065859
Ti       4.40776345       1.05957587       8.71174364        0      -0.00154005      -0.00452463       0.00616380
O        2.89246657       1.93269724       7.77375883        1      -0.00326938      -0.00032524      -0.00107206
O        4.40836473       1.05942432      12.23008024        3      -0.00174793      -0.00267342      -0.24381020
C        1.37645744       2.80572034      10.00705643        2      -0.00104842       0.00106822       0.00017526
Ti       1.37252842       4.55232863      11.30381857        0       0.00007748      -0.00023266      -0.00304962
Ti       2.89250097       3.68266890       8.71195864        0      -0.00059296       0.00364459       0.00134366
O        1.37356239       4.55451294       7.77607512        1      -0.00016439       0.00421053       0.00119971
O        2.89309194       3.68348521      12.23008024        3      -0.00563049      -0.00259021      -0.20965288
C       -0.14052212       5.43332862      10.00241220        2      -0.00014916      -0.00286768       0.00092131
Ti      -0.14050135       7.18226241      11.29957537        0       0.00225040       0.00155693      -0.00377303
Ti       1.37830881       6.30680379       8.71194567        0      -0.00838500      -0.00204898      -0.00193399
O       -0.13635638       7.18268653       7.77140466        1       0.00266039      -0.00316225       0.00198255
O        1.37605813       6.30708897      12.23008024        3       0.00005366      -0.00135575      -0.22124861
C       -1.65126087       8.05786206       9.99922921        2      -0.00106867       0.00124920       0.00244070
Ti      -1.65207737       9.80740490      11.29406923        0      -0.00652714      -0.00022590       0.00150625
Ti      -0.13545692       8.93118886       8.71284785        0      -0.00023058       0.00027373      -0.00208916
O       -1.64905810       9.80786963       7.77203547        1      -0.00323916      -0.00190386       0.00048284
O       -0.13790988       8.93037885      12.23008024        3      -0.00165171      -0.00412574      -0.21647929
C        5.92382461       0.18418791      10.00423490        2      -0.00246614      -0.00138539       0.00193491
Ti       5.92553225       1.93630916      11.30457238        0       0.00070743      -0.00095514       0.00282093
Ti       7.43753642       1.06031220       8.71205089        0      -0.00452292      -0.00199624      -0.00304763
O        5.92687976       1.93246628       7.77336914        1      -0.00286994       0.00092944       0.00166398
O        7.43728093       1.05987575      12.23008024        3       0.00136156      -0.00173334      -0.17063394
C        4.40735666       2.80847426      10.00107881        2      -0.00134992       0.00049667      -0.00161059
Ti       4.39931046       4.55756779      11.29586875        0      -0.00115254      -0.00273616      -0.00097780
Ti       5.92112159       3.68236811       8.70734412        0      -0.00078847      -0.00396911       0.00156559
O        4.40683369       4.55278121       7.76867700        1      -0.00561830      -0.00205832       0.00043442
O        5.91302850       3.68600969      12.23008024        3      -0.00161262      -0.00178934      -0.28287325
C        2.89182766       5.43219054       9.99702929        2      -0.00351995      -0.00227541       0.00288266
Ti       2.88894824       7.17468209      11.29350156        0      -0.00005019      -0.00627457      -0.00083276
Ti       4.40710507       6.30722496       8.70274373        0       0.00018646      -0.00096500      -0.00018006
O        2.88895438       7.18400511       7.76857221        1      -0.00705714       0.00142281       0.00134945
O        4.40430492       6.30558408      12.23008024        3       0.00080326      -0.00331017      -0.29045846
C        1.37762223       8.05578168      10.00128674        2       0.00092531      -0.00325572      -0.00309736
Ti       1.37644667       9.80450680      11.30713103        0      -0.00110192      -0.00529417      -0.00181704
Ti       2.89356563       8.92895394       8.71336172        0      -0.00273101       0.00455590       0.00237792
O        1.38110685       9.80846998       7.77625002        1      -0.00085671      -0.00518515       0.00095452
O        2.88845206       8.91729868      12.23008024        3      -0.00139636       0.00029389      -0.23614634
C        8.95360820       0.18940523      10.01370010        2       0.00076982      -0.00153001      -0.00015580
Ti       8.95460026       1.90076903      11.26259772        0      -0.00290072       0.00368279      -0.00110221
Ti      10.47183778       1.05691093       8.71910189        0      -0.00187883       0.00105252      -0.00164469
O        8.95685768       1.93276802       7.77498195        1       0.00075300      -0.00004532      -0.00298041
O       10.51076862       0.96357102      12.23008024        3       0.00358365       0.00204597      -1.07428699
C        7.44385701       2.80362439      10.00733826        2      -0.00059384      -0.00159827      -0.00271628
Ti       7.40631169       4.57768225      11.26794247        0      -0.00081565       0.00285545       0.00018793
Ti       8.95146947       3.68202076       8.71824947        0      -0.00173304      -0.00205998       0.00146794
O        7.44039200       4.55222064       7.77108244        1      -0.00184720       0.00069321      -0.00153511
O        8.88475564       3.78305329      12.23008024        3      -0.00095285      -0.00466378      -0.68226494
C        5.91462695       5.43632422       9.99071716        2      -0.00303812       0.00101237       0.00022357
Ti       5.92000748       7.17991111      11.29128456        0      -0.00349499      -0.00095692       0.00098987
Ti       7.44000161       6.30908552       8.70082395        0       0.00014779       0.00078528       0.00190344
O        5.92216048       7.18242501       7.76399818        1       0.00018890       0.00223946       0.00291169
O        7.43221913       6.32000675      12.23008024        3      -0.00090957       0.00172954      -0.31122359
C        4.40700111       8.04640395       9.99231425        2      -0.00053537       0.00014163       0.00077844
Ti       4.41442967       9.78729589      11.30168618        0      -0.00414896       0.00114628       0.00151206
Ti       5.92450172       8.93081036       8.70582031        0      -0.00275390      -0.00320911       0.00071342
O        4.40471638       9.80949577       7.77520570        1      -0.00039912      -0.00404746       0.00188816
O        5.93417903       8.91668831      12.23008024        3      -0.00478080      -0.00061495      -0.24962663
C        0.27878885      -0.23473876      15.57257010       10       0.00393192       0.00551899       0.05421816
C        1.48716009       0.46785149      15.58095833       10       0.00762637      -0.00147552       0.08829092
C       -0.91217925       1.85323554      15.54819943       10       0.00783879      -0.00179730       0.86971838
C        0.27565728       2.56533898      15.55583817       10       0.00039570       0.00885526       0.11214951
C       -2.15311069       4.00292828      15.54819388       10       0.00137865      -0.00602902       0.85807930
C       -0.94130470       4.67395824      15.55583561       10      -0.00214403       0.00437432       0.13284278
C       -3.36544666       6.07753659      15.57256955       10       0.00635972       0.00152640       0.07465333
C       -2.15238883       6.77293194      15.58095813       10       0.00319887       0.00226196       0.08209213
C       -4.57637154       8.16801367      15.57067716       10      -0.00200300       0.00659346       0.12440269
C       -3.36474408       8.86751371      15.58196682       10       0.00155533      -0.00012747       0.07241010
C        2.69731192      -0.23072566      15.58299184       10       0.00980152       0.00116851       0.08860281
C        3.90761451       0.46979739      15.58196673       10       0.00155000       0.00384002       0.05996198
C        1.49190432       1.86554361      15.57257031       10      -0.00274432       0.00213115       0.04664188
C        2.69773801       2.56920101      15.56351018       10      -0.00385506      -0.00023161       0.06235816
C        0.27095015       3.96800138      15.52971029       10       0.00236418       0.00964713       0.22345468
C        1.48124672       4.66740089      15.54138024       10       0.00821032       0.00022497      -0.00402069
C       -0.93975679       6.07724353      15.57256955       10       0.00269211       0.00466820       0.06152046
C        0.27246843       6.77003354      15.56351028       10       0.00376840       0.00019599       0.05686884
C       -2.15274909       8.17064211      15.58299205       10       0.00423895      -0.00075926       0.07718272
C       -0.94050818       8.86781570      15.58196682       10      -0.00024870       0.00033869       0.06223160
C        5.11816060      -0.23017426      15.58299184       10       0.00077170       0.00145498       0.07649833
C        6.32901362       0.46864369      15.58095833       10      -0.00076777      -0.00085516       0.10704595
C        3.90806858       1.86872619      15.57067703       10      -0.00182396       0.00315650       0.08439160
C        5.11845163       2.56930145      15.56351018       10       0.00081612      -0.00119696       0.06631969
C        2.69519521       3.96826932      15.54962668       10       0.00689591      -0.00167124       0.06246061
C        3.90697819       4.66833518      15.54683882       10       0.00246438       0.00397354       0.07795363
C        1.48280804       6.06832868      15.54962658       10       0.00363821      -0.00067006       0.07268976
C        2.69484324       6.76802085      15.54683871       10       0.00005512       0.00201241       0.07949876
C        0.27119361       8.16873863      15.57067716       10       0.00520447       0.00229660       0.08071462
C        1.48302536       8.86670364      15.56351003       10       0.00415966       0.00082017       0.06599233
C        7.53805373      -0.23283635      15.57257010       10      -0.00258402      -0.00102294       0.05755978
C        8.75283104       0.47080075      15.55583798       10      -0.00451190       0.00177008       0.14389573
C        6.32515966       1.86657364      15.57257031       10       0.00285720       0.00005249       0.07001476
C        7.54163115       2.56724972      15.55583817       10       0.00219623       0.00639396       0.14111207
C        5.11972769       3.96841685      15.54962668       10      -0.00003495       0.00003607       0.05460579
C        6.33312475       4.66814935      15.54138024       10      -0.00304706       0.00216582       0.03113114
C        3.90714227       6.06829210      15.54376082       10       0.00339534       0.00471183       0.05935423
C        5.11892667       6.76855754      15.54683871       10       0.00563596      -0.00009342       0.08563713
C        2.69523221       8.16812012      15.54962641       10       0.00368473       0.00111129       0.05576446
C        3.90745484       8.86947696      15.54137983       10       0.00323260      -0.00246439       0.01021481
C        9.96805700      -0.22917362      15.52971024       10      -0.00085645       0.00014448       0.22770502
C       11.18467159       0.46894906      15.55583798       10       0.00242594      -0.00084983       0.09020029
C        8.72987448       1.85644246      15.54819943       10       0.00030385       0.00215744       0.65650453
C        9.96743115       2.57426292      15.30384017       10       0.00580590      -0.00803726      -0.94069158
C        7.54427659       3.96945546      15.52971029       10      -0.00271718       0.00824527       0.20535265
C        8.75650560       4.67478222      15.55583561       10       0.00180045      -0.00060038       0.13566069
C        6.33141521       6.06895476      15.54962658       10       0.00734270       0.00122132       0.05781567
C        7.54220515       6.76999989      15.56351028       10       0.00504727       0.00788121       0.05683313
C        5.11968001       8.16838120      15.54962641       10       0.00378371      -0.00126530       0.05324787
C        6.33232071       8.86580217      15.56351003       10      -0.00137520       0.00683755       0.06070913
O       10.00219833       2.57929449      13.86518284       11       0.00209791      -0.00069623       0.00401539
H        9.36557496       3.24135491      13.41757805       12      -0.00357607       0.00054593      -0.00536775
