130
Lattice="12.12 0.0 0.0 -6.06 10.496227893867395 0.0 0.0 0.0 40.0" Properties=species:S:1:pos:R:3:tags:I:1:forces:R:3 energy=-1200.63350513607 stress="0.0028210583458175903 1.0694574556380133e-08 7.489288184804145e-08 1.0694574556380133e-08 0.002821024505163139 1.1299278629105263e-07 7.489288184804145e-08 1.1299278629105263e-07 0.002101613835594241" pbc="T T F"
C        0.00000353      -0.00002428      10.00080823        2      -0.00001683       0.00009538       0.00127989
Ti       0.00005488       1.74948181      11.30673102        0       0.00002755       0.00033337      -0.00192995
Ti       1.51489731       0.87462510       8.69035181        0      -0.00009117      -0.00001394       0.00034655
O       -0.00001579       1.74940845       7.76892864        1      -0.00001740       0.00005430      -0.00019115
O        1.51354206       0.87390912      12.23159545        3       0.00009639       0.00000652       0.06660693
C       -1.51496197       2.62407232      10.00145955        2       0.00025753      -0.00010857       0.00180062
Ti      -1.51468145       4.37373531      11.30685446        0       0.00016897       0.00030272      -0.00134868
Ti       0.00002030       3.49870568       8.69021017        0       0.00005441      -0.00000408       0.00017085
O       -1.51515397       4.37336848       7.76898045        1      -0.00043666      -0.00026598       0.00026164
O        0.00023961       3.49843709      12.23159545        3      -0.00027520       0.00009001       0.06310913
C       -3.02980590       5.24820514      10.00180999        2       0.00013885       0.00013868       0.00232278
Ti      -3.02961657       6.99753054      11.30687119        0       0.00016655      -0.00011121      -0.00136106
Ti      -1.51494286       6.12283670       8.69022349        0      -0.00008437      -0.00006205       0.00001136
O       -3.03014077       6.99738309       7.76898593        1      -0.00048678      -0.00024537       0.00035428
O       -1.51289690       6.12401852      12.23159545        3      -0.00010695      -0.00002070       0.06519494
C       -4.54495729       7.87220598      10.00157350        2       0.00008227       0.00025050       0.00187703
Ti      -4.54475361       9.62148614      11.30676972        0       0.00023545      -0.00000021      -0.00193964
Ti      -3.02999763       8.74689097       8.69020611        0       0.00003730       0.00001044       0.00009960
O       -4.54498126       9.62148707       7.76892591        1       0.00003028      -0.00008944      -0.00006469
O       -3.02969987       8.74710777      12.23159545        3      -0.00008075      -0.00009792       0.06482749
C        3.02999494      -0.00000684      10.00131381        2      -0.00007468      -0.00020615       0.00175921
Ti       3.02974639       1.74919373      11.30692651        0       0.00001451       0.00017463      -0.00088489
Ti       4.54489585       0.87458368       8.69028390        0      -0.00001898       0.00016744       0.00113362
O        3.03016974       1.74947271       7.76903737        1       0.00033923       0.00020186       0.00070478
O        4.54386802       0.87276577      12.23159545        3       0.00006210       0.00013025       0.06425599
C        1.51500436       2.62406889      10.00130820        2      -0.00029786      -0.00011809       0.00174056
Ti       1.51468345       4.37380159      11.30683577        0      -0.00004150       0.00028860      -0.00152100
Ti       3.02984525       3.49867801       8.69027929        0       0.00004650      -0.00010382       0.00128277
O        1.51514547       4.37337567       7.76897793        1       0.00039315      -0.00025843       0.00013310
O        3.02778622       3.49861281      12.23159545        3       0.00019179      -0.00003444       0.05990409
C       -0.00000912       5.24796385      10.00100308        2       0.00001546       0.00027001       0.00149131
Ti       0.00005714       6.99761149      11.30660869        0       0.00018082      -0.00000749      -0.00251532
Ti       1.51495191       6.12283908       8.69024597        0       0.00012424      -0.00002065       0.00008708
O       -0.00000144       6.99747962       7.76898766        1      -0.00005031      -0.00003424      -0.00044463
O        1.51331993       6.12394102      12.23159545        3       0.00040432      -0.00016591       0.06367039
C       -1.51514391       7.87222159      10.00096269        2       0.00023273      -0.00006653       0.00154585
Ti      -1.51480558       9.62113687      11.30680790        0       0.00013344      -0.00012251      -0.00167183
Ti       0.00000747       8.74680530       8.69029175        0       0.00006142       0.00006473       0.00002265
O       -1.51498281       9.62167913       7.76898232        1      -0.00005184       0.00045932       0.00011577
O        0.00012895       8.74522611      12.23159545        3      -0.00000763       0.00017966       0.06320613
C        6.06000334      -0.00002395      10.00163536        2      -0.00005070      -0.00022075       0.00210162
Ti       6.06001674       1.74901360      11.30703814        0      -0.00010288      -0.00007123       0.00000060
Ti       7.57508289       0.87460325       8.69027805        0       0.00003201       0.00022795       0.00113543
O        6.06000306       1.74955699       7.76922084        1       0.00001225       0.00048413       0.00164851
O        7.57602368       0.87284020      12.23159545        3       0.00010727       0.00006626       0.05935446
C        4.54489402       2.62394982      10.00229278        2      -0.00023071      -0.00008635       0.00275188
Ti       4.54468139       4.37356624      11.30701358        0      -0.00026977       0.00003267       0.00001672
Ti       6.05999781       3.49874073       8.69051258        0       0.00000774       0.00007264       0.00271307
O        4.54515025       4.37334753       7.76924309        1       0.00036058      -0.00021697       0.00176628
O        6.06013469       3.49890530      12.23159545        3      -0.00024549      -0.00003171       0.07026696
C        3.02990913       5.24813957      10.00172663        2      -0.00019822       0.00018432       0.00214123
Ti       3.02965423       6.99751429      11.30682091        0      -0.00012354      -0.00023113      -0.00148127
Ti       4.54499077       6.12290879       8.69029420        0       0.00022083      -0.00013268       0.00134588
O        3.03013569       6.99739143       7.76899069        1       0.00051659      -0.00023888       0.00014914
O        4.54415487       6.12431864      12.23159545        3       0.00013739      -0.00003979       0.05283264
C        1.51514577       7.87222920      10.00086856        2      -0.00023052      -0.00006228       0.00137712
Ti       1.51488068       9.62118916      11.30678443        0      -0.00030515      -0.00007612      -0.00164606
Ti       3.02999664       8.74686422       8.69019944        0      -0.00003382      -0.00005409       0.00003862
O        1.51499211       9.62168406       7.76898939        1       0.00006074       0.00051552       0.00005049
O        3.02940876       8.74666420      12.23159545        3      -0.00000716       0.00017561       0.06248747
C        9.09004450      -0.00001380      10.00139928        2       0.00012327      -0.00022645       0.00181808
Ti       9.09036634       1.74913253      11.30693842        0       0.00014400      -0.00003074      -0.00081052
Ti      10.60513919       0.87461399       8.69032263        0       0.00017629      -0.00006673       0.00039612
O        9.08986626       1.74947941       7.76905435        1      -0.00026511       0.00022772       0.00076999
O       10.60688846       0.87367159      12.23159545        3      -0.00005560       0.00009396       0.06695352
C        7.57514315       2.62386474      10.00222688        2       0.00015897      -0.00001140       0.00276714
Ti       7.57532312       4.37356298      11.30696452        0       0.00008555       0.00001670      -0.00003427
Ti       9.09015030       3.49867576       8.69029630        0      -0.00004622      -0.00016151       0.00141319
O        7.57488376       4.37336391       7.76928168        1      -0.00026080      -0.00016472       0.00195638
O        9.09175376       3.49860629      12.23159545        3       0.00026008      -0.00004025       0.05162693
C        6.05993973       5.24833338      10.00218105        2       0.00006821       0.00017174       0.00274286
Ti       6.05999794       6.99800309      11.30694384        0      -0.00009759       0.00021311      -0.00070869
Ti       7.57501280       6.12293264       8.69031488        0      -0.00021864      -0.00007473       0.00148458
O        6.06002256       6.99731974       7.76906312        1       0.00006474      -0.00029835       0.00097700
O        7.57563114       6.12408017      12.23159545        3       0.00011279       0.00023422       0.04965414
C        4.54499009       7.87220858      10.00149880        2      -0.00006067       0.00031860       0.00190941
Ti       4.54469936       9.62141301      11.30677143        0      -0.00050333      -0.00025775      -0.00185890
Ti       6.06000650       8.74703361       8.69031215        0      -0.00000254       0.00020239       0.00043358
O        4.54499284       9.62151286       7.76893417        1      -0.00000316      -0.00004846      -0.00013654
O        6.05998669       8.74939710      12.23159545        3       0.00009050      -0.00018743       0.06793552
C        0.04476200       0.06749144      17.16317440       10       0.00585898       0.00145166       0.00044985
C        1.25638693       0.76703284      17.16317440       10       0.00303808       0.00181337      -0.05100434
C       -1.16664281       2.16667658      17.16317440       10      -0.00094295       0.00037437      -0.02087167
C        0.04523199       2.86611645      17.16317440       10      -0.00256103       0.00139834      -0.03281232
C       -2.37890042       4.26620416      17.16317440       10       0.00096916      -0.00092747      -0.02069149
C       -1.16681856       4.96571016      17.16317440       10       0.00068391       0.00110572      -0.02201990
C       -3.59094438       6.36532476      17.16317440       10       0.00317080      -0.00100699      -0.02069681
C       -2.37903943       7.06529849      17.16317440       10       0.00198247      -0.00132839      -0.02098551
C       -4.80280268       8.46481022      17.16317440       10       0.00025882      -0.00085758      -0.02179544
C       -3.59111037       9.16459404      17.16317440       10      -0.00237401      -0.00167896      -0.03132344
C        2.46860937       0.06738293      17.16317440       10       0.00431224       0.00197365      -0.01979944
C        3.68038637       0.76726744      17.16317440       10       0.00422066       0.00070900      -0.02445070
C        1.25692013       2.16658000      17.16317440       10      -0.00127429       0.00272684      -0.01885921
C        2.46891052       2.86620736      17.16317440       10      -0.00115519      -0.00031633      -0.02456544
C        0.04506777       4.26621690      17.16317440       10       0.00019369       0.00118946      -0.03044911
C        1.25674484       4.96579233      17.16317440       10       0.00058834      -0.00007921      -0.02194333
C       -1.16687107       6.36548316      17.16317440       10       0.00193624       0.00167313      -0.03737205
C        0.04483204       7.06510274      17.16317440       10       0.00130157      -0.00152601       0.00014342
C       -2.37862634       8.46457498      17.16317440       10      -0.00062844      -0.00086274      -0.03118803
C       -1.16699552       9.16421286      17.16317440       10      -0.00074512      -0.00160945      -0.01952557
C        4.89290134       0.06727727      17.16317440       10       0.00271639       0.00031953      -0.02381406
C        6.10481944       0.76716730      17.16317440       10       0.00203959       0.00198535      -0.01343309
C        3.68103362       2.16673419      17.16317440       10      -0.00155327      -0.00022146      -0.01361794
C        4.89308933       2.86651659      17.16317440       10      -0.00147815      -0.00052664       0.00212180
C        2.46878662       4.26625446      17.16317440       10       0.00007373      -0.00074125      -0.02217780
C        3.68095356       4.96570850      17.16317440       10       0.00008739       0.00067284      -0.01370159
C        1.25653477       6.36560351      17.16317440       10       0.00161486       0.00051207      -0.04253817
C        2.46874705       7.06520616      17.16317440       10       0.00160152       0.00021823      -0.01977829
C        0.04516642       8.46422673      17.16317440       10      -0.00206944      -0.00200700      -0.04889797
C        1.25723473       9.16409354      17.16317440       10      -0.00283093      -0.00036470      -0.01827558
C        7.31674413       0.06719864      17.16317440       10       0.00071102       0.00153455      -0.02381184
C        8.52919886       0.76720905      17.16317440       10       0.00064241       0.00069949      -0.02227908
C        6.10511593       2.16670449      17.16317440       10      -0.00117200       0.00150997       0.00116343
C        7.31711956       2.86657689      17.16317440       10      -0.00187626      -0.00167232       0.00492996
C        4.89303919       4.26603866      17.16317440       10      -0.00043011       0.00004343       0.00321531
C        6.10497873       4.96584018      17.16317440       10      -0.00018952      -0.00114668       0.00861087
C        3.68059604       6.36528095      17.16317440       10       0.00115252       0.00026791      -0.02236376
C        4.89299614       7.06539789      17.16317440       10       0.00117599      -0.00278394      -0.02111988
C        2.46895575       8.46445957      17.16317440       10      -0.00435611      -0.00072967      -0.03293570
C        3.68146575       9.16454912      17.16317440       10      -0.00442888      -0.00207469      -0.03019981
C        9.74101392       0.06736065      17.16317440       10       0.00234188       0.00153651      -0.02284279
C       10.95330667       0.76714411      17.16317440       10      -0.00024675       0.00074299      -0.04319849
C        8.52909107       2.16668164      17.16317440       10      -0.00202420       0.00121111      -0.01379391
C        9.74128653       2.86619067      17.16317440       10      -0.00332734       0.00100559      -0.02266400
C        7.31697355       4.26606939      17.16317440       10      -0.00074343      -0.00109750       0.00743225
C        8.52895813       4.96573538      17.16317440       10      -0.00115432       0.00097370      -0.01329360
C        6.10479302       6.36534235      17.16317440       10       0.00241119      -0.00140363      -0.01340638
C        7.31670766       7.06530412      17.16317440       10       0.00078575      -0.00041302      -0.02119116
C        4.89309791       8.46485024      17.16317440       10      -0.00317074      -0.00193249      -0.02297279
C        6.10528511       9.16471202      17.16317440       10      -0.00592126      -0.00160848      -0.03918928
