131
Lattice="12.12 0.0 0.0 -6.06 10.496227893867395 0.0 0.0 0.0 40.0" Properties=species:S:1:pos:R:3:tags:I:1:forces:R:3 energy=-1204.324895120157 stress="0.0028040453239682704 3.90958645134841e-07 2.5284709707310376e-07 3.90958645134841e-07 0.002804504959225581 -5.024204301350854e-07 2.5284709707310376e-07 -5.024204301350854e-07 0.0029466783265944653" pbc="T T F"
C       -0.34823710      -0.44840525       9.96209430        2      -0.00207808       0.00171048      -0.00233378
Ti      -0.34377448       1.30309002      11.29585124        0      -0.00029915      -0.00104939      -0.00166088
Ti       1.17292870       0.42710581       8.71130987        0       0.00701304      -0.00363589       0.00390711
O       -0.32167741       1.29010548       7.76855613        1       0.00363312      -0.00019245       0.00242560
O        1.15608888       0.43776692      12.23159545        3      -0.00252728      -0.00213013      -0.17058117
C       -1.85290208       2.17407971       9.95458810        2       0.00085576       0.00065029      -0.00327881
Ti      -1.85268250       3.91495871      11.29474238        0       0.00098496       0.00344360       0.00271138
Ti      -0.33607616       3.05039755       8.68249930        0       0.00378529       0.00230452      -0.00056165
O       -1.85271046       3.94329267       7.76957702        1      -0.00024198       0.00056972      -0.00209235
O       -0.33646434       3.04919167      12.23159545        3       0.00008516      -0.00049183      -0.20651752
C       -3.37212649       4.78741354       9.96279977        2       0.00098535       0.00030901      -0.00123901
Ti      -3.37189701       6.51587822      11.28037794        0      -0.00133049      -0.00090757      -0.00252610
Ti      -1.85185606       5.67095087       8.71278095        0      -0.00244398      -0.00228670      -0.00092207
O       -3.35000188       6.56711328       7.79382369        1      -0.00138836      -0.00004859       0.00212963
O       -1.85259394       5.64722845      12.23159545        3       0.00202303      -0.00021066      -0.16745273
C       -4.90799371       7.40760346       9.94751459        2      -0.00019190      -0.00040677      -0.00181529
Ti      -4.91060728       9.18300588      11.27932987        0      -0.00391449       0.00305824      -0.00059336
Ti      -3.37565715       8.29236337       8.75425204        0      -0.00359834      -0.00168522      -0.00174547
O       -4.85670704       9.17718655       7.79322065        1      -0.00005305      -0.00193247       0.00451756
O       -3.55280026       8.18916626      12.23159545        3      -0.00027938      -0.00001726      -0.43084343
C        2.71398136      -0.46202583      10.06588018        2      -0.00266508       0.00188416      -0.00583517
Ti       2.66842707       1.31922984      11.27934957        0      -0.00343574      -0.00257601       0.00111033
Ti       4.20714283       0.43618388       8.75363887        0       0.00097460      -0.00689176       0.00141574
O        2.70037427       1.27514333       7.79371413        1      -0.00052033       0.00036664       0.00021945
O        4.20796080       0.64030581      12.23159545        3       0.00095022      -0.00213301      -0.43369551
C        1.17025324       2.18293732       9.96235710        2      -0.00159475       0.00097559      -0.00187490
Ti       1.18369949       3.92698450      11.28816747        0       0.00021824       0.00044794       0.00060740
Ti       2.69532324       3.05044534       8.67650806        0      -0.00338109       0.00025043      -0.00023597
O        1.17557769       3.92278994       7.75318297        1       0.00128346      -0.00213050       0.00343066
O        2.69198265       3.08198356      12.23159545        3       0.00146190       0.00066811      -0.21844063
C       -0.33304474       4.78736615       9.96270440        2      -0.00161328      -0.00160602       0.00022683
Ti      -0.33257585       6.51613836      11.28039690        0      -0.00176214      -0.00164149      -0.00250804
Ti       1.18131667       5.67442403       8.67680457        0      -0.00204050      -0.00130638      -0.00230314
O       -0.35339342       6.56691582       7.79412081        1      -0.00391243      -0.00027026      -0.00279561
O        1.20587783       5.65556896      12.23159545        3       0.00189207       0.00296299      -0.21860883
C       -1.85159600       7.44496292      10.06413963        2      -0.00302534       0.00218582       0.00248212
Ti      -1.85183459       9.17186509      11.72366440        0      -0.00402451       0.00284145      -0.00209798
Ti      -0.32745699       8.29182333       8.75363789        0      -0.00294063       0.00178124       0.00105572
O       -1.85208181       9.17213030       7.87183395        1       0.00204615      -0.00001067      -0.00124352
O       -0.15106439       8.18944693      12.23159545        3       0.00319997      -0.00178551      -0.43468995
C        5.70339275      -0.46100819      10.06455513        2      -0.00251345      -0.00223816      -0.00008647
Ti       5.74745129       1.32001675      11.28013249        0       0.00339416      -0.00633471      -0.00062399
Ti       7.23930954       0.42631963       8.71302599        0       0.00250246      -0.00029405      -0.00251314
O        5.71419353       1.27564349       7.79377518        1      -0.00174449      -0.00071707      -0.00166077
O        7.25984397       0.43759917      12.23159545        3       0.00102989       0.00092522      -0.17132081
C        4.20693302       2.20437961       9.94727327        2       0.00211003      -0.00081485      -0.00127567
Ti       4.20707321       3.92853134      11.29043704        0       0.00031808       0.00064542       0.00092080
Ti       5.71905614       3.05094693       8.67641636        0       0.00246868      -0.00129412       0.00154279
O        4.20699460       3.91886395       7.74924415        1       0.00132127       0.00123288      -0.00176032
O        5.72237292       3.08196654      12.23159545        3       0.00224233       0.00235447      -0.21819665
C        2.69350274       4.79905704       9.94323165        2      -0.00009545      -0.00191556      -0.00165133
Ti       2.69615357       6.54541601      11.28917759        0       0.00163110      -0.00142452       0.00490636
Ti       4.20825113       5.67281588       8.68467399        0      -0.00085931       0.00306165       0.00030959
O        2.68852361       6.54958769       7.74913771        1       0.00281336       0.00138626      -0.00105136
O        4.20789768       5.67369957      12.23159545        3      -0.00259913      -0.00378075      -0.18392552
C        1.20359846       7.40732123       9.94743357        2       0.00225324       0.00116366       0.00076065
Ti       1.20726155       9.18292537      11.27975962        0      -0.00001058       0.00553332       0.00059696
Ti       2.69303257       8.29312231       8.67615700        0      -0.00023079       0.00227303      -0.00004349
O        1.15313806       9.17684425       7.79370185        1      -0.00265997      -0.00157201      -0.00132517
O        2.72153492       8.28072845      12.23159545        3       0.00023922      -0.00031332      -0.22076050
C        8.76450976      -0.44811463       9.96192357        2      -0.00013950      -0.00044025       0.00475196
Ti       8.76002769       1.30338835      11.29530487        0      -0.00177852      -0.00251462       0.00234875
Ti      10.26642050       0.42205934       8.68229162        0      -0.00026435       0.00054295       0.00083495
O        8.73510652       1.28997950       7.76894588        1       0.00245398       0.00033405       0.00074092
O       10.26843886       0.42280199      12.23159545        3      -0.00530959       0.00344688      -0.20847363
C        7.24429721       2.18358709       9.96193667        2       0.00261125       0.00025987       0.00606299
Ti       7.23107810       3.92689038      11.28774205        0      -0.00035781       0.00190096       0.00014546
Ti       8.74991130       3.05021486       8.68087732        0      -0.00013562      -0.00046845       0.00429894
O        7.23868137       3.92293932       7.75312762        1       0.00187423       0.00030476       0.00028414
O        8.75142831       3.04937030      12.23159545        3      -0.00090504      -0.00195835      -0.20848786
C        5.72095138       4.79887144       9.94283546        2       0.00311835       0.00089179      -0.00183811
Ti       5.71885192       6.54562140      11.29035183        0      -0.00030071      -0.00128518       0.00132990
Ti       7.23530204       5.67497442       8.67713880        0      -0.00084545       0.00262581      -0.00252679
O        5.72719496       6.54990139       7.74914689        1      -0.00164494       0.00084365       0.00217131
O        7.20870487       5.65553788      12.23159545        3       0.00277341       0.00346305      -0.21924409
C        4.20762633       7.42131283       9.94253597        2       0.00187823      -0.00068232      -0.00032532
Ti       4.20779753       9.16339361      11.28808883        0       0.00165577       0.00532024      -0.00005253
Ti       5.72325720       8.29378003       8.67565764        0       0.00117451      -0.00093278       0.00254406
O        4.20782901       9.17346172       7.75267843        1      -0.00036592      -0.00144652       0.00272374
O        5.69383621       8.28075930      12.23159545        3       0.00279013      -0.00016678      -0.22089686
C        0.57324406       0.77372776      15.54343103       10       0.00362618       0.00381956       0.07049651
C        1.78052133       1.47609185      15.52813898       10      -0.00316687      -0.00034278       0.04948810
C       -0.63974614       2.87338408      15.54875173       10       0.00483637      -0.00175726       0.07934683
C        0.57270186       3.57340995      15.53104130       10       0.00050702      -0.00128227       0.08935743
C       -1.85137278       4.97360317      15.54343103       10       0.00184852       0.00083038       0.07038941
C       -0.63962293       5.66802797      15.52813898       10      -0.00070478       0.00043803       0.04926101
C       -3.05820906       7.07459775      15.48032028       10       0.00205699       0.00023293       0.12240364
C       -1.85145253       7.75047624      15.43849806       10       0.00123710      -0.00144261      -0.33987251
C       -4.27056001       9.17454759      15.48032028       10       0.00209789      -0.00208662       0.12266791
C       -3.08192208       9.88186506      15.43849806       10      -0.00441192      -0.00388373      -0.33718174
C        2.99615680       0.76851670      15.48032028       10       0.00109267       0.00358276       0.12292408
C        4.20845666       1.47680509      15.44824160       10       0.00418531       0.00076961       0.00211427
C        1.78439959       2.87445293      15.51709601       10      -0.00050909      -0.00026674       0.09702779
C        2.99621716       3.57410008      15.49518160       10      -0.00073148      -0.00193268       0.08947118
C        0.57331049       4.97221112      15.51709601       10      -0.00116356      -0.00158089       0.09695483
C        1.78510163       5.67173196      15.49518160       10      -0.00102969      -0.00017316       0.08917156
C       -0.64457420       7.07467659      15.48032028       10       0.00029272      -0.00007945       0.12211328
C        0.57511166       7.77031919      15.44824160       10      -0.00398410       0.00254999       0.00229551
C       -1.85165018       9.17141875      14.98569240       10       0.00727831      -0.00219506       1.34926486
C       -0.62097262       9.88173965      15.43849806       10       0.00291056      -0.00134352      -0.33739296
C        5.42082749       0.76850774      15.48032028       10       0.00186904       0.00071396       0.12291178
C        6.63660942       1.47608848      15.52813898       10      -0.00057843      -0.00045617       0.04944934
C        4.20865097       2.87074409      15.48057531       10      -0.00064437       0.00015350       0.02283138
C        5.42113535       3.57411269      15.49518160       10      -0.00240717      -0.00044954       0.08919981
C        2.99757525       4.97335816      15.49249999       10       0.00189179      -0.00109306       0.10157840
C        4.20850758       5.67253507      15.48749922       10       0.00414021      -0.00132175       0.07771727
C        1.78229122       7.07329534      15.48057531       10      -0.00410028       0.00294769       0.02236434
C        2.99750728       7.77163241      15.49518160       10      -0.00029841       0.00172099       0.08922471
C        0.56777313       9.17442930      15.48032028       10      -0.00171310       0.00115946       0.12245252
C        1.78841917       9.87351525      15.52813898       10      -0.00205183      -0.00191945       0.04936841
C        7.84385409       0.77388792      15.54343103       10      -0.00258781      -0.00091590       0.07019188
C        9.05829425       1.47518592      15.55036955       10       0.00072962      -0.00476498       0.08768185
C        6.63290361       2.87444028      15.51709601       10      -0.00388410       0.00002762       0.09688614
C        7.84453801       3.57334422      15.53104130       10      -0.00291777       0.00102276       0.08913638
C        5.41958703       4.97345667      15.49249999       10       0.00192500      -0.00192094       0.10187775
C        6.63228216       5.67177983      15.49518160       10      -0.00248244       0.00087472       0.08926937
C        4.20856774       7.07078604      15.49249999       10       0.00213514       0.00039590       0.10165725
C        5.41969691       7.77166893      15.49518160       10       0.00162806       0.00104236       0.08946711
C        2.99742159       9.17084085      15.51709601       10      -0.00039324       0.00246713       0.09701435
C        4.20844896       9.87080657      15.53104130       10       0.00274927      -0.00213310       0.08940076
C       10.26838029       0.77449667      15.54875173       10       0.00583616       0.00148535       0.07930066
C       11.47879098       1.47495796      15.55036955       10      -0.00418054       0.00129912       0.08777711
C        9.05678993       2.87343692      15.54875173       10       0.00127379      -0.00063835       0.07934132
C       10.26854612       3.57117296      15.55036955       10       0.00162191       0.00181460       0.08782263
C        7.84403355       4.97206373      15.51709601       10      -0.00207350       0.00380857       0.09703156
C        9.05696392       5.66790201      15.52813898       10      -0.00307414       0.00353175       0.04932674
C        6.63516669       7.07347740      15.48057531       10      -0.00144060      -0.00120017       0.02284804
C        7.84235720       7.77048925      15.44824160       10      -0.00320222      -0.00193544       0.00209583
C        5.41961154       9.17089854      15.51709601       10       0.00274805       0.00150016       0.09710165
C        6.62885260       9.87341508      15.52813898       10      -0.00611642      -0.00006536       0.04943205
O       -1.85141069       9.17207000      13.60120691       11      -0.00269290       0.00001291       0.00096008
