130
Lattice="12.12 0.0 0.0 -6.06 10.496227893867395 0.0 0.0 0.0 40.0" Properties=species:S:1:pos:R:3:tags:I:1:forces:R:3 energy=-1198.8635834587096 stress="0.002742370823080702 -7.146833363352129e-07 2.7063037291877686e-07 -7.146833363352129e-07 0.0027439490383829217 5.88848212099798e-07 2.7063037291877686e-07 5.88848212099798e-07 0.003140931493644317" pbc="T T F"
C       -0.00008948      -0.00010559       9.97279742        2       0.00021226       0.00025790      -0.00775739
Ti       0.00024951       1.74647509      11.28869993        0      -0.00009910      -0.00111432      -0.00242977
Ti       1.51503364       0.87467461       8.70019243        0       0.00033945       0.00020332      -0.00616156
O       -0.00004721       1.74943717       7.77679971        1       0.00002731       0.00079055      -0.00297451
O        1.51012357       0.87251451      12.23159545        3      -0.00041014      -0.00002010      -0.09235278
C       -1.51596775       2.62430009       9.97429132        2       0.00039253      -0.00002325      -0.00644858
Ti      -1.51645455       4.37075623      11.29093785        0      -0.00046352      -0.00045391      -0.00000262
Ti       0.00004170       3.49882985       8.70211867        0       0.00010507       0.00081099      -0.00396569
O       -1.51549969       4.37354553       7.77752297        1       0.00006004       0.00099977       0.00020899
O        0.00072875       3.49415082      12.23159545        3       0.00000123      -0.00052091      -0.13759042
C       -3.03147589       5.24728818       9.97618176        2      -0.00016120      -0.00016626      -0.00507091
Ti      -3.03294821       6.99731439      11.29062409        0      -0.00091599       0.00047212      -0.00001410
Ti      -1.51465047       6.12292330       8.70397597        0       0.00033962       0.00034744      -0.00150906
O       -3.03008468       6.99702334       7.77759883        1       0.00079777      -0.00019162      -0.00008813
O       -1.51300438       6.12367583      12.23159545        3      -0.00036077      -0.00028570      -0.14173566
C       -4.54554301       7.87123575       9.97442657        2      -0.00008510       0.00012752      -0.00661793
Ti      -4.54832197       9.62391699      11.28958122        0      -0.00055016       0.00026618      -0.00108613
Ti      -3.03002385       8.74695703       8.70243148        0       0.00067078      -0.00025495      -0.00353592
O       -4.54507408       9.62145237       7.77691070        1       0.00069676      -0.00043333      -0.00281753
O       -3.03340475       8.75023244      12.23159545        3      -0.00059545       0.00055115      -0.14352326
C        3.03033411       0.00062359       9.97387448        2      -0.00015512       0.00033861      -0.00643309
Ti       3.02639640       1.74767921      11.28985071        0      -0.00121996      -0.00087252      -0.00133236
Ti       4.54479674       0.87452747       8.70233981        0       0.00037754       0.00004421      -0.00315403
O        3.03075680       1.74988967       7.77661101        1       0.00049279       0.00019429      -0.00100881
O        4.54025673       0.87252310      12.23159545        3      -0.00039978       0.00090212      -0.14759198
C        1.51578305       2.62420447       9.97400413        2      -0.00007731       0.00016186      -0.00627128
Ti       1.51649351       4.37019029      11.29244324        0      -0.00051291      -0.00057639      -0.00154399
Ti       3.02981307       3.49866139       8.70227931        0       0.00028393       0.00022847      -0.00330699
O        1.51543539       4.37343638       7.77776251        1       0.00003025       0.00095085       0.00046418
O        3.02557489       3.49543950      12.23159545        3      -0.00005860      -0.00025009      -0.14544909
C       -0.00006925       5.24759740       9.97357059        2       0.00021472       0.00000995      -0.00436627
Ti       0.00006769       6.99736585      11.29317361        0      -0.00029530       0.00039532      -0.00061362
Ti       1.51480411       6.12277383       8.70405435        0      -0.00015116       0.00024949      -0.00168032
O        0.00007612       6.99752730       7.77856818        1       0.00010144       0.00027389       0.00149370
O        1.51341820       6.12339053      12.23159545        3       0.00046623      -0.00035201      -0.14267084
C       -1.51570822       7.87236048       9.97371491        2       0.00021674       0.00007885      -0.00434153
Ti      -1.51679390       9.62419788      11.29218476        0      -0.00078494       0.00038052       0.00035131
Ti      -0.00003968       8.74671991       8.70392535        0       0.00003436      -0.00008094      -0.00147519
O       -1.51483474       9.62179693       7.77788517        1       0.00069812      -0.00044807       0.00021693
O       -0.00002303       8.74511330      12.23159545        3       0.00015245       0.00071342      -0.14430082
C        6.06003126       0.00169480       9.97529773        2      -0.00004011       0.00052659      -0.00490142
Ti       6.05997836       1.75187026      11.28403564        0       0.00020987       0.00032677      -0.00238041
Ti       7.57529300       0.87433177       8.70229922        0      -0.00029322       0.00003656      -0.00350421
O        6.06013646       1.74985941       7.77596671        1       0.00007076      -0.00019764      -0.00023994
O        7.57868717       0.87235377      12.23159545        3       0.00047910       0.00083494      -0.15114187
C        4.54537980       2.62442326       9.97550383        2      -0.00031566       0.00028208      -0.00571773
Ti       4.54680494       4.37255926      11.28345388        0       0.00011301       0.00039130      -0.00331060
Ti       6.05996834       3.49866871       8.70082378        0       0.00003900       0.00006654      -0.00419391
O        4.54552129       4.37337940       7.77575258        1      -0.00009530       0.00017381      -0.00024529
O        6.06014303       3.49897003      12.23159545        3      -0.00026741       0.00032724      -0.18223245
C        3.03156549       5.24725571       9.97563965        2       0.00014483      -0.00012986      -0.00480421
Ti       3.03316181       6.99755199      11.29078151        0       0.00074337       0.00082650      -0.00159971
Ti       4.54476590       6.12322998       8.70202365        0      -0.00011398      -0.00013732      -0.00363836
O        3.03007657       6.99722388       7.77770927        1      -0.00068993      -0.00013809       0.00031996
O        4.54463069       6.12691289      12.23159545        3       0.00030740      -0.00004105      -0.15447675
C        1.51585032       7.87253874       9.97384557        2       0.00019384      -0.00003513      -0.00397169
Ti       1.51668788       9.62415591      11.29115915        0       0.00079726       0.00070452       0.00011917
Ti       3.03022396       8.74702215       8.70268698        0      -0.00048549      -0.00024241      -0.00352460
O        1.51487368       9.62170356       7.77779731        1      -0.00060885      -0.00043750       0.00036865
O        3.03368433       8.74963059      12.23159545        3       0.00093611       0.00045469      -0.14922908
C        9.08976523       0.00095746       9.97396257        2       0.00032766       0.00006900      -0.00636501
Ti       9.09212507       1.74896660      11.28899615        0       0.00143076      -0.00084046      -0.00094043
Ti      10.60492172       0.87468627       8.70074383        0      -0.00036444       0.00026684      -0.00618089
O        9.08925684       1.74998731       7.77642003        1      -0.00055281       0.00033299      -0.00121567
O       10.61049125       0.87280935      12.23159545        3       0.00077498      -0.00021668      -0.09916529
C        7.57498570       2.62447567       9.97555843        2      -0.00011505       0.00019777      -0.00565085
Ti       7.57376682       4.37282223      11.28312017        0       0.00006194       0.00036780      -0.00212409
Ti       9.09035644       3.49862613       8.70204644        0      -0.00008934       0.00031298      -0.00357133
O        7.57467003       4.37333114       7.77565071        1       0.00020067       0.00017208      -0.00038259
O        9.09442622       3.49601099      12.23159545        3      -0.00016544      -0.00066129      -0.15061858
C        6.06019908       5.24806805       9.97540341        2      -0.00025039      -0.00006240      -0.00578645
Ti       6.06024320       6.99838373      11.28775841        0       0.00040293       0.00078091      -0.00090764
Ti       7.57513850       6.12322511       8.70188208        0       0.00026138      -0.00009806      -0.00351598
O        6.06007746       6.99647518       7.77613406        1       0.00005458      -0.00048793      -0.00124976
O        7.57504978       6.12736990      12.23159545        3      -0.00058718      -0.00011691      -0.15546962
C        4.54579720       7.87141845       9.97424489        2       0.00003522      -0.00003419      -0.00632116
Ti       4.54972281       9.62453628      11.29091531        0       0.00145571       0.00055400      -0.00020263
Ti       6.05998709       8.74670927       8.70100519        0      -0.00001823      -0.00041195      -0.00567764
O        4.54517577       9.62157562       7.77709308        1      -0.00059500      -0.00039400      -0.00242559
O        6.06049630       8.75302206      12.23159545        3       0.00021521       0.00027818      -0.10505190
C        0.04520692       0.06771575      15.17370071       10      -0.00845166      -0.00474020       0.07310430
C        1.25558956       0.76641266      15.17370071       10       0.00007062       0.00014631      -0.01632675
C       -1.16602125       2.16562998      15.17370071       10      -0.00038586      -0.00014418       0.04448742
C        0.04502324       2.86523381      15.17370071       10       0.00114464      -0.00113628       0.01510359
C       -2.37769509       4.26566307      15.17370071       10      -0.00221793       0.00213155       0.06116604
C       -1.16542411       4.96581073      15.17370071       10      -0.00100064       0.00039763       0.10059752
C       -3.59025539       6.36618305      15.17370071       10      -0.00371446       0.00141586       0.06132033
C       -2.37762997       7.06586132      15.17370071       10      -0.00281035       0.00219060       0.10538375
C       -4.80313481       8.46588792      15.17370071       10      -0.00740034       0.00079753       0.04341838
C       -3.59161346       9.16480753      15.17370071       10       0.00350837       0.00524872       0.02509917
C        2.46748455       0.06716751      15.17370071       10      -0.00363007      -0.00393822       0.04998850
C        3.67882788       0.76565718      15.17370071       10      -0.00371965      -0.00159995       0.01285422
C        1.25569702       2.16547525      15.17370071       10      -0.00051710      -0.00307397       0.04948543
C        2.46621560       2.86517829      15.17370071       10       0.00026329      -0.00030356       0.00687249
C        0.04509940       4.26556167      15.17370071       10      -0.00181121      -0.00037402       0.04699035
C        1.25587599       4.96570493      15.17370071       10      -0.00126208      -0.00009774       0.10334193
C       -1.16594507       6.36553838      15.17370071       10      -0.00359002      -0.00122100       0.02498687
C        0.04541437       7.06507707      15.17370071       10      -0.00253190       0.00145053       0.14412857
C       -2.37883009       8.46441727      15.17370071       10      -0.00229814       0.00082365       0.04139103
C       -1.16724470       9.16328044      15.17370071       10      -0.00185648       0.00242095       0.11106803
C        4.89210663       0.06668529      15.17370071       10      -0.00102195      -0.00130353       0.04858054
C        6.10460638       0.76495923      15.17370071       10       0.00015086      -0.00231497       0.06293399
C        3.67933356       2.16591625      15.17370071       10       0.00188510      -0.00087051       0.06189716
C        4.89149066       2.86584870      15.17370071       10       0.00190385      -0.00039775       0.02218930
C        2.46760897       4.26548207      15.17370071       10       0.00009856       0.00101874       0.05427320
C        3.67855363       4.96663704      15.17370071       10       0.00008989      -0.00151825       0.05108793
C        1.25664948       6.36547593      15.17370071       10      -0.00213461      -0.00031613       0.02777216
C        2.46814730       7.06572593      15.17370071       10      -0.00242722       0.00039723       0.11305340
C        0.04507976       8.46395639      15.17370071       10      -0.00032446       0.00195717       0.03017177
C        1.25706216       9.16335946      15.17370071       10       0.00058606       0.00114724       0.11606801
C        7.31740347       0.06686626      15.17370071       10       0.00196273      -0.00251789       0.04883810
C        8.53071376       0.76562624      15.17370071       10       0.00245529      -0.00103673       0.02288438
C        6.10451815       2.16591539      15.17370071       10       0.00252425      -0.00193044       0.06474005
C        7.31753027       2.86589014      15.17370071       10       0.00375886       0.00081785       0.02667414
C        4.89186603       4.26638983      15.17370071       10       0.00127320      -0.00052334       0.06424590
C        6.10470259       4.96678397      15.17370071       10       0.00177814       0.00007577       0.03167077
C        3.68051569       6.36610825      15.17370071       10      -0.00075692      -0.00009618       0.05491250
C        4.89233903       7.06750308      15.17370071       10       0.00006296       0.00274887       0.01996502
C        2.46854377       8.46435363      15.17370071       10       0.00319131       0.00125818       0.03787727
C        3.68125638       9.16467370      15.17370071       10       0.00320898       0.00365734       0.03935832
C        9.74233709       0.06720226      15.17370071       10      -0.00323624      -0.00545982       0.04476508
C       10.95447014       0.76640056      15.17370071       10       0.00736148      -0.00079041      -0.01282980
C        8.52995988       2.16603821      15.17370071       10       0.00294685      -0.00257489       0.06355115
C        9.74329562       2.86537427      15.17370071       10       0.00384089      -0.00154737       0.00940524
C        7.31753597       4.26641696      15.17370071       10       0.00089851      -0.00065588       0.06488973
C        8.53098127       4.96669936      15.17370071       10       0.00216721      -0.00225156       0.03899768
C        6.10497390       6.36675077      15.17370071       10      -0.00127610       0.00105939       0.06274121
C        7.31761185       7.06754720      15.17370071       10       0.00032588      -0.00009510       0.01240350
C        4.89307147       8.46594994      15.17370071       10      -0.00030685      -0.00021663       0.04264945
C        6.10485261       9.16622068      15.17370071       10       0.00820183       0.00457973      -0.01061371
