130
Lattice="12.12 0.0 0.0 -6.06 10.496227893867395 0.0 0.0 0.0 40.0" Properties=species:S:1:pos:R:3:tags:I:1:forces:R:3 energy=-1199.6824914869183 stress="0.0028129940832649983 7.363555469379789e-09 5.218511536538127e-08 7.363555469379789e-09 0.002812978899803367 7.919417083282549e-08 5.218511536538127e-08 7.919417083282549e-08 0.0020042755486565414" pbc="T T F"
C       -0.00001853      -0.00002357      10.00104618        2       0.00002490       0.00003402       0.00118881
Ti      -0.00000494       1.74941382      11.31209294        0       0.00003164       0.00015910       0.00066886
Ti       1.51500367       0.87468572       8.68940044        0      -0.00007294      -0.00003440       0.00172702
O       -0.00000023       1.74937501       7.76916157        1       0.00002135       0.00010797       0.00193066
O        1.51481943       0.87465198      12.23159545        3       0.00009114       0.00003350       0.10628898
C       -1.51507735       2.62412987      10.00116674        2      -0.00001450      -0.00004056       0.00121681
Ti      -1.51520344       4.37333280      11.31219447        0      -0.00010171      -0.00008044       0.00073493
Ti      -0.00000856       3.49880147       8.68936936        0       0.00002658       0.00015905       0.00169437
O       -1.51494418       4.37344415       7.76908573        1       0.00014227       0.00010699       0.00175538
O       -0.00003442       3.49874593      12.23159545        3       0.00000731       0.00010985       0.12275095
C       -3.02998648       5.24812795      10.00099779        2      -0.00021240      -0.00009256       0.00104948
Ti      -3.03023574       6.99736082      11.31218134        0      -0.00014622      -0.00009552       0.00077446
Ti      -1.51503743       6.12278816       8.68942537        0       0.00002583       0.00003111       0.00179824
O       -3.02995779       6.99752698       7.76907997        1       0.00017267       0.00009711       0.00174053
O       -1.51519540       6.12276252      12.23159545        3      -0.00008883      -0.00004216       0.11233750
C       -4.54498848       7.87209449      10.00115600        2      -0.00002572      -0.00001970       0.00120876
Ti      -4.54497133       9.62153180      11.31210875        0       0.00009594      -0.00001193       0.00068333
Ti      -3.02995385       8.74681667       8.68937404        0       0.00014531      -0.00005739       0.00167714
O       -4.54499352       9.62154823       7.76914948        1       0.00010252      -0.00003127       0.00192363
O       -3.02998597       8.74677061      12.23159545        3       0.00003997       0.00002754       0.12289862
C        3.03007222       0.00003516      10.00119402        2       0.00002134       0.00000086       0.00128013
Ti       3.02995563       1.74936294      11.31212841        0      -0.00006205      -0.00001283       0.00055354
Ti       4.54503897       0.87475509       8.68934772        0      -0.00002144       0.00002343       0.00130855
O        3.02994105       1.74933297       7.76907187        1      -0.00014784      -0.00009027       0.00157324
O        4.54552600       0.87570495      12.23159545        3      -0.00004308      -0.00003612       0.12850727
C        1.51507453       2.62412288      10.00117488        2      -0.00000644       0.00000503       0.00127578
Ti       1.51517718       4.37335461      11.31218776        0       0.00014585      -0.00000512       0.00083239
Ti       3.03007812       3.49874502       8.68934643        0      -0.00001559      -0.00001814       0.00129862
O        1.51495523       4.37344884       7.76910332        1      -0.00011272       0.00010709       0.00182020
O        3.03119734       3.49877671      12.23159545        3      -0.00006075      -0.00006482       0.13052143
C       -0.00001701       5.24799951      10.00121504        2       0.00002738       0.00010036       0.00131394
Ti      -0.00002309       6.99744862      11.31215788        0       0.00000527      -0.00003724       0.00092339
Ti       1.51502573       6.12280340       8.68944438        0      -0.00001055       0.00005626       0.00191733
O        0.00000797       6.99749065       7.76917065        1      -0.00000108       0.00002707       0.00212933
O        1.51509439       6.12289560      12.23159545        3       0.00007041       0.00001662       0.10951484
C       -1.51511668       7.87220801      10.00119315        2       0.00007039      -0.00003131       0.00137275
Ti      -1.51498098       9.62173344      11.31218821        0       0.00007212       0.00011613       0.00088223
Ti       0.00000759       8.74686923       8.68945757        0       0.00002987      -0.00005469       0.00195543
O       -1.51500082       9.62150020       7.76910804        1       0.00005547      -0.00015189       0.00186687
O        0.00008186       8.74678096      12.23159545        3      -0.00002853       0.00009322       0.10712012
C        6.06000228       0.00003798      10.00109781        2      -0.00001683       0.00017943       0.00117857
Ti       6.05998784       1.74962210      11.31208578        0      -0.00004696       0.00011051       0.00013797
Ti       7.57496849       0.87477224       8.68935984        0       0.00000683       0.00004428       0.00125309
O        6.05998980       1.74929487       7.76900999        1      -0.00000233      -0.00022382       0.00115761
O        7.57450675       0.87587424      12.23159545        3       0.00011587      -0.00009919       0.13125722
C        4.54496556       2.62402848      10.00072786        2       0.00008961       0.00005873       0.00080306
Ti       4.54519305       4.37329963      11.31207993        0      -0.00000760      -0.00002504       0.00004763
Ti       6.06001637       3.49875941       8.68942643        0      -0.00001118       0.00001960       0.00092604
O        4.54493246       4.37344878       7.76900451        1      -0.00019930       0.00007865       0.00111850
O        6.06019611       3.49901295      12.23159545        3      -0.00009326       0.00002835       0.16371893
C        3.03002136       5.24810497      10.00106096        2       0.00014279      -0.00004741       0.00111646
Ti       3.03024775       6.99734494      11.31219064        0       0.00020029      -0.00007098       0.00083061
Ti       4.54506499       6.12272700       8.68935917        0       0.00005001      -0.00002390       0.00122712
O        3.02995290       6.99751928       7.76909714        1      -0.00012309       0.00008302       0.00180951
O        4.54587058       6.12169721      12.23159545        3       0.00006395       0.00021454       0.13651160
C        1.51510809       7.87222119      10.00119305        2      -0.00002630      -0.00005805       0.00127545
Ti       1.51499156       9.62178825      11.31220401        0       0.00006295       0.00017710       0.00082460
Ti       3.02994683       8.74682330       8.68938395        0      -0.00015809      -0.00010000       0.00174702
O        1.51500260       9.62149319       7.76910727        1      -0.00002768      -0.00013167       0.00187417
O        3.02990818       8.74677142      12.23159545        3       0.00000946      -0.00002714       0.12289817
C        9.08994051       0.00003986      10.00120469        2       0.00004164       0.00007774       0.00125068
Ti       9.09003967       1.74940592      11.31213491        0       0.00008670      -0.00002422       0.00048083
Ti      10.60498809       0.87468621       8.68939288        0       0.00009036      -0.00006281       0.00166211
O        9.09006735       1.74932651       7.76906248        1       0.00013877      -0.00011665       0.00148592
O       10.60511162       0.87475686      12.23159545        3      -0.00007706      -0.00000448       0.10925927
C        7.57503759       2.62401746      10.00063637        2      -0.00009413       0.00010702       0.00085941
Ti       7.57484361       4.37335012      11.31205764        0      -0.00006507      -0.00007073      -0.00005666
Ti       9.08991541       3.49874220       8.68936521        0      -0.00000171      -0.00003085       0.00117472
O        7.57505782       4.37345638       7.76900215        1       0.00016845       0.00006506       0.00104264
O        9.08864843       3.49883843      12.23159545        3       0.00014619      -0.00006606       0.13720729
C        6.05998722       5.24816676      10.00057836        2       0.00005810      -0.00010461       0.00072189
Ti       6.06002503       6.99750783      11.31212885        0       0.00000618       0.00012023       0.00044638
Ti       7.57494698       6.12272771       8.68936952        0      -0.00005747      -0.00000471       0.00115759
O        6.05999736       6.99756922       7.76904746        1      -0.00003371       0.00023234       0.00144286
O        7.57425008       6.12160868      12.23159545        3       0.00006200       0.00013803       0.14032495
C        4.54500288       7.87210408      10.00117826        2       0.00005491      -0.00002150       0.00127365
Ti       4.54497552       9.62153177      11.31212160        0      -0.00004300       0.00000314       0.00073312
Ti       6.05999799       8.74684415       8.68937785        0      -0.00001281       0.00011892       0.00161164
O        4.54498987       9.62154564       7.76914586        1      -0.00011432      -0.00006241       0.00191501
O        6.06007104       8.74682588      12.23159545        3      -0.00008719      -0.00006808       0.11143347
C        0.04473387       0.06749234      17.73159545       10       0.00616089       0.00152302      -0.07386468
C        1.25676253       0.76717378      17.73159545       10       0.00367719       0.00219580      -0.01909456
C       -1.16683160       2.16672598      17.73159545       10      -0.00132390       0.00064997      -0.05324964
C        0.04516194       2.86646559      17.73159545       10      -0.00266879       0.00161596      -0.01990163
C       -2.37906389       4.26601549      17.73159545       10       0.00092534      -0.00076334      -0.03480053
C       -1.16700900       4.96572104      17.73159545       10       0.00086846       0.00118225      -0.04607240
C       -3.59123332       6.36529403      17.73159545       10       0.00328310      -0.00102773      -0.03247832
C       -2.37915615       7.06509682      17.73159545       10       0.00227066      -0.00120389      -0.05044495
C       -4.80285093       8.46459026      17.73159545       10      -0.00048494      -0.00073029      -0.05074121
C       -3.59083251       9.16424378      17.73159545       10      -0.00274867      -0.00123272      -0.02023746
C        2.46868126       0.06743805      17.73159545       10       0.00486559       0.00205727      -0.04776257
C        3.68074149       0.76729089      17.73159545       10       0.00486252       0.00085306      -0.02716538
C        1.25707886       2.16662187      17.73159545       10      -0.00134105       0.00304872      -0.05240724
C        2.46914300       2.86655705      17.73159545       10      -0.00125161      -0.00019720      -0.02545161
C        0.04498363       4.26585984      17.73159545       10       0.00039731       0.00127577      -0.02073712
C        1.25689328       4.96580123      17.73159545       10       0.00080054      -0.00021140      -0.04364154
C       -1.16720904       6.36522592      17.73159545       10       0.00224101       0.00160709      -0.01940085
C        0.04483778       7.06511819      17.73159545       10       0.00166818      -0.00179064      -0.07479290
C       -2.37896645       8.46458570      17.73159545       10      -0.00104649      -0.00069612      -0.02028568
C       -1.16693185       9.16431253      17.73159545       10      -0.00103826      -0.00144964      -0.04736571
C        4.89274057       0.06761138      17.73159545       10       0.00327545       0.00021902      -0.02763475
C        6.10485081       0.76724048      17.73159545       10       0.00242012       0.00220139      -0.05919809
C        3.68113441       2.16680477      17.73159545       10      -0.00172547      -0.00008566      -0.05936064
C        4.89320609       2.86653666      17.73159545       10      -0.00201810      -0.00020495      -0.05773954
C        2.46901475       4.26603711      17.73159545       10       0.00011643      -0.00076541      -0.03182264
C        3.68107163       4.96573047      17.73159545       10      -0.00019906       0.00077063      -0.05888129
C        1.25685752       6.36529178      17.73159545       10       0.00200162       0.00021246      -0.01921654
C        2.46889462       7.06506072      17.73159545       10       0.00174821       0.00010334      -0.05373981
C        0.04513927       8.46466723      17.73159545       10      -0.00243732      -0.00223234      -0.01909794
C        1.25726465       9.16423393      17.73159545       10      -0.00328760      -0.00023109      -0.05321747
C        7.31692760       0.06754633      17.73159545       10       0.00102666       0.00143442      -0.02550567
C        8.52887950       0.76728345      17.73159545       10       0.00101345       0.00069448      -0.03233699
C        6.10517733       2.16675055      17.73159545       10      -0.00172429       0.00175195      -0.05877137
C        7.31715078       2.86661062      17.73159545       10      -0.00231393      -0.00165245      -0.06403551
C        4.89311402       4.26602960      17.73159545       10      -0.00087936       0.00020675      -0.06386194
C        6.10502179       4.96585610      17.73159545       10      -0.00043826      -0.00135622      -0.06874190
C        3.68097302       6.36526350      17.73159545       10       0.00126343       0.00019189      -0.02730048
C        4.89290680       7.06515277      17.73159545       10       0.00136798      -0.00309084      -0.03471207
C        2.46934693       8.46456852      17.73159545       10      -0.00484898      -0.00083779      -0.01985976
C        3.68122698       9.16431380      17.73159545       10      -0.00485352      -0.00205388      -0.02078459
C        9.74090652       0.06750854      17.73159545       10       0.00272354       0.00122511      -0.04327420
C       10.95282762       0.76726638      17.73159545       10       0.00045287       0.00067974      -0.01923923
C        8.52910749       2.16677718      17.73159545       10      -0.00234144       0.00117412      -0.05907980
C        9.74111898       2.86651876      17.73159545       10      -0.00331808       0.00093396      -0.02770618
C        7.31700836       4.26609621      17.73159545       10      -0.00089080      -0.00124540      -0.06988098
C        8.52894368       4.96576572      17.73159545       10      -0.00091274       0.00065463      -0.05983071
C        6.10482515       6.36532868      17.73159545       10       0.00265996      -0.00171082      -0.05992727
C        7.31683972       7.06503071      17.73159545       10       0.00129064      -0.00073881      -0.03183617
C        4.89324594       8.46468771      17.73159545       10      -0.00367006      -0.00221980      -0.04527640
C        6.10525626       9.16428275      17.73159545       10      -0.00616755      -0.00155070      -0.01939008
