131
Lattice="12.12 0.0 0.0 -6.06 10.496227893867395 0.0 0.0 0.0 40.0" Properties=species:S:1:pos:R:3:tags:I:1:forces:R:3 energy=-1205.078861543421 stress="0.0028169226673846826 1.3579965880179148e-07 1.5144664270213397e-06 1.3579965880179148e-07 0.0028231725500895326 3.4994328916859183e-06 1.5144664270213397e-06 3.4994328916859183e-06 0.002670541334756352" pbc="T T F"
C       -0.35970227       0.14815934       9.99298437        2       0.00267224      -0.00042673       0.00054771
Ti      -0.35262212       1.89674926      11.31634147        0       0.00151836      -0.00587183      -0.00061512
Ti       1.16391346       1.01968554       8.70350594        0       0.00121494      -0.00000120       0.00001460
O       -0.34974921       1.89687409       7.77384677        1      -0.00437624      -0.00118946       0.00025908
O        1.15482656       1.02251141      12.23159545        3      -0.00020758       0.00102823      -0.01324488
C       -1.86816336       2.76558034       9.99384342        2      -0.00012244      -0.00175528      -0.00037732
Ti      -1.86768758       4.51094347      11.30495095        0      -0.00297744       0.00009676      -0.00132498
Ti      -0.35268173       3.64674620       8.70225126        0      -0.00071386      -0.00076349       0.00354389
O       -1.86795439       4.52341075       7.77934205        1      -0.00022044       0.00017653       0.00068420
O       -0.35488798       3.64047842      12.23159545        3      -0.00201271       0.00250608      -0.03037442
C       -3.38305939       5.39288948       9.99860703        2       0.00124751      -0.00329353      -0.00122553
Ti      -3.36780079       7.15527926      11.33999592        0       0.00182876       0.00062300      -0.00119505
Ti      -1.86866858       6.26787737       8.71343046        0       0.00311673      -0.00037030       0.00294225
O       -3.38116433       7.14539948       7.78861797        1       0.00138557       0.00017101       0.00162721
O       -1.86848637       6.24903118      12.23159545        3       0.00200268       0.00012054      -0.13477281
C       -4.90206666       8.01855061       9.99748349        2       0.00145338       0.00402518      -0.00044364
Ti      -4.91159029       9.77445150      11.29719311        0      -0.00356418       0.00362808      -0.00019598
Ti      -3.38724990       8.89401771       8.71517894        0       0.00160823      -0.00012666       0.00251570
O       -4.89602553       9.76567540       7.77901659        1       0.00003722       0.00042244      -0.00420475
O       -3.41326943       8.90344338      12.23159545        3      -0.00207028       0.00264388      -0.23731112
C        2.67399840       0.14639848      10.00067565        2      -0.00295560      -0.00044894      -0.00111411
Ti       2.67509303       1.88815891      11.32275282        0       0.00136762       0.00335349      -0.00201561
Ti       4.19172606       1.01966453       8.70736985        0       0.00022508       0.00211884      -0.00004432
O        2.67857198       1.89407479       7.78119369        1       0.00114318       0.00077469       0.00053294
O        4.19151715       1.01989612      12.23159545        3       0.00026772       0.00469355       0.00544623
C        1.16074959       2.76957946       9.99716737        2       0.00187808       0.00188391      -0.00383870
Ti       1.15932574       4.52011925      11.32467042        0       0.00196686       0.00308132      -0.00145418
Ti       2.67703424       3.64398298       8.70447810        0      -0.00192098      -0.00218064       0.00309690
O        1.16316279       4.52016419       7.78033462        1      -0.00172158      -0.00055828       0.00029824
O        2.67342964       3.64058385      12.23159545        3      -0.00053122       0.00115315      -0.02718845
C       -0.35318163       5.39276010       9.99868066        2       0.00068356      -0.00096379       0.00078831
Ti      -0.36891609       7.15681668      11.34437650        0       0.00015250       0.00230111      -0.00299253
Ti       1.15962515       6.26912449       8.70422024        0      -0.00050926       0.00021226       0.00368248
O       -0.35566936       7.14539618       7.78942304        1       0.00043858       0.00013809       0.00173443
O        1.16246364       6.26654783      12.23159545        3       0.00011455       0.00089827      -0.00212694
C       -1.86764798       8.01942378      10.02526151        2      -0.00029787       0.00007140       0.00091828
Ti      -1.86685087       9.73727261      11.36904360        0       0.00248538       0.00198182      -0.00248807
Ti      -0.34907353       8.89459396       8.71540715        0       0.00031595      -0.00226672       0.00210943
O       -1.86839811       9.76471005       7.79498797        1       0.00056500      -0.00084111      -0.00064113
O       -0.31892512       8.90578696      12.23159545        3      -0.00039992       0.00084239      -0.27446520
C        5.70987253       0.14650844      10.00058474        2       0.00373912       0.00332972      -0.00501406
Ti       5.70802645       1.88861814      11.32197881        0      -0.00130368      -0.00182560      -0.00171388
Ti       7.21976519       1.01996983       8.70226540        0       0.00157596      -0.00005529       0.00156125
O        5.70522421       1.89438754       7.78117190        1      -0.00433414      -0.00133923      -0.00150640
O        7.22805184       1.02314797      12.23159545        3       0.00142536      -0.00096729      -0.01366826
C        4.19177173       2.76663463      10.00076293        2      -0.00005233       0.00189296      -0.00101336
Ti       4.19161745       4.51638664      11.31890271        0       0.00014064       0.00102683      -0.00173088
Ti       5.70698010       3.64393356       8.70490593        0      -0.00014896       0.00061608       0.00275193
O        4.19161383       4.51749572       7.77896707        1       0.00238657       0.00001821       0.00143145
O        5.70988125       3.64083301      12.23159545        3       0.00044911       0.00104014      -0.03023063
C        2.67656070       5.39243336       9.99971149        2      -0.00168783       0.00069727       0.00150179
Ti       2.67421635       7.14529591      11.32349289        0      -0.00138987      -0.00243095      -0.00129884
Ti       4.19160785       6.26581596       8.70621374        0       0.00200017       0.00393550       0.00127624
O        2.67623621       7.14005744       7.77987561        1       0.00000692       0.00268472       0.00061075
O        4.19173582       6.26823376      12.23159545        3       0.00048710       0.00138075      -0.04320094
C        1.16599900       8.01912750       9.99650839        2       0.00089723      -0.00001986       0.00145227
Ti       1.17723376       9.77550670      11.29499012        0      -0.00188691       0.00422511      -0.00154233
Ti       2.67559565       8.88985531       8.69903742        0       0.00027929       0.00089406       0.00435110
O        1.15980396       9.76639302       7.77730228        1      -0.00172273      -0.00261865       0.00081177
O        2.68172695       8.89410271      12.23159545        3      -0.00242426       0.00130789      -0.02525114
C        8.74305317       0.14846617       9.99286719        2       0.00017751       0.00062463       0.00013034
Ti       8.73583291       1.89640422      11.31710068        0       0.00082041       0.00009141      -0.00071786
Ti      10.25229111       1.02073796       8.68706415        0      -0.00120745      -0.00009435       0.00083971
O        8.73421911       1.89695534       7.77393505        1       0.00229888      -0.00246811      -0.00092639
O       10.25211571       1.02205192      12.23159545        3      -0.00116566       0.00030972      -0.07491422
C        7.22328822       2.76971340       9.99625088        2      -0.00286393       0.00152166       0.00338425
Ti       7.22413821       4.51977777      11.32500481        0       0.00123491       0.00310662      -0.00174522
Ti       8.73674043       3.64670994       8.70188607        0       0.00034206      -0.00193259       0.00237458
O        7.22072896       4.51985439       7.78038888        1       0.00027449       0.00403619       0.00004707
O        8.73924718       3.64090718      12.23159545        3       0.00156423      -0.00066842      -0.02838228
C        5.70715732       5.39233850       9.99986541        2       0.00026502       0.00044793       0.00008959
Ti       5.70957787       7.14482448      11.32417912        0      -0.00022616      -0.00031738      -0.00048816
Ti       7.22380323       6.26921704       8.70434927        0      -0.00106403      -0.00057623       0.00319328
O        5.70715864       7.14047986       7.78011876        1       0.00112545      -0.00060899       0.00184159
O        7.22121952       6.26626328      12.23159545        3       0.00087608       0.00165419      -0.00464406
C        4.19175886       8.01787800       9.99622540        2       0.00031962      -0.00212809      -0.00270252
Ti       4.19151412       9.76587463      11.31758675        0       0.00509917       0.00143312      -0.00102341
Ti       5.70696086       8.89004966       8.69980899        0       0.00251891      -0.00039017       0.00223418
O        4.19175690       9.76481292       7.77234319        1      -0.00005556       0.00241248       0.00118167
O        5.70223355       8.89441745      12.23159545        3       0.00230097       0.00180691      -0.02648146
C        0.59516328      -0.15737500      16.11185208       10       0.00314974      -0.00080232       0.03623158
C        1.80141859       0.54390969      16.09656003       10       0.00163017      -0.00343147       0.01654273
C       -0.61554074       1.93976846      16.11717278       10       0.00023751      -0.00111503       0.01130611
C        0.59601914       2.63948038      16.09946235       10      -0.00134097      -0.00068485      -0.00795928
C       -1.82639490       4.03654803      16.11185208       10      -0.00008879      -0.00184116       0.02683532
C       -0.61574155       4.73048680      16.09656003       10      -0.00280605       0.00044921       0.00756820
C       -3.03319966       6.13810806      16.04874133       10      -0.00033718      -0.00189704       0.12678459
C       -1.82661160       6.81709419      16.00691911       10      -0.00026267      -0.00233878      -0.33192429
C       -4.24775255       8.24274853      16.04874133       10       0.00272519      -0.00285954       0.12031324
C       -3.05579155       8.94790385      16.00691911       10       0.00044130      -0.00387960      -0.35611525
C        3.01869264      -0.16387984      16.04874133       10       0.00345407      -0.00143901       0.12456000
C        4.23321650       0.54215687      16.01666265       10       0.00184079       0.00052110      -0.02835889
C        1.80796212       1.94094431      16.08551706       10      -0.00115372      -0.00241689       0.03013903
C        3.02002964       2.63929152      16.06360265       10      -0.00233656      -0.00099396       0.02737159
C        0.59718455       4.03737412      16.08551706       10      -0.00300762       0.00046673       0.03349070
C        1.80841532       4.73838414      16.06360265       10      -0.00233846      -0.00074643       0.03934508
C       -0.62011822       6.13803909      16.04874133       10       0.00049060       0.00064197       0.12711011
C        0.59820572       6.83747932      16.01666265       10       0.00263063      -0.00181713      -0.02142976
C       -1.82733099       8.23562286      15.55411345       10       0.00118156      -0.00275444       0.73849082
C       -0.59812786       8.94745809      16.00691911       10       0.00103912      -0.00243515      -0.36542841
C        5.44757703      -0.16422714      16.04874133       10       0.00049664      -0.00038760       0.12290302
C        6.66506566       0.54342811      16.09656003       10      -0.00046927      -0.00051631       0.01925507
C        4.23358727       1.93737691      16.04899636       10      -0.00150522       0.00097265      -0.01014280
C        5.44726089       2.63908531      16.06360265       10      -0.00118929       0.00073560       0.02763507
C        3.02152454       4.03937054      16.06092104       10      -0.00262862      -0.00075298      -0.00738655
C        4.23362784       4.73925045      16.05592027       10      -0.00123324       0.00012438       0.01394561
C        1.80663408       6.14010419      16.04899636       10       0.00228832      -0.00072149      -0.01426266
C        3.02136481       6.84014028      16.06360265       10       0.00159643      -0.00029598       0.04027711
C        0.59403414       8.24254093      16.04874133       10      -0.00013747      -0.00170115       0.12044204
C        1.81526110       8.94255846      16.09656003       10      -0.00153290      -0.00074029       0.02952193
C        7.87143442      -0.15777375      16.11185208       10      -0.00040271       0.00077212       0.03853670
C        9.08500810       0.54274436      16.11879060       10      -0.00046895       0.00032404      -0.00760335
C        6.65911081       1.94059344      16.08551706       10      -0.00143911       0.00006016       0.03009184
C        7.87113249       2.63938465      16.09946235       10      -0.00079871      -0.00147464      -0.00170311
C        5.44561478       4.03928419      16.06092104       10      -0.00017479       0.00092209      -0.00820369
C        6.65871206       4.73841743      16.06360265       10       0.00122274      -0.00139190       0.04257504
C        4.23339976       6.13858078      16.06092104       10       0.00047902       0.00016492      -0.01094064
C        5.44538236       6.84015707      16.06360265       10      -0.00050759      -0.00038917       0.04109843
C        3.02264806       8.23901821      16.08551706       10      -0.00249473      -0.00073605       0.02282011
C        4.23349037       8.93892647      16.09946235       10      -0.00223862      -0.00092250       0.02957145
C       10.29341647      -0.15726321      16.11717278       10       0.00042679       0.00136782       0.02634978
C       11.50191206       0.54286147      16.11879060       10      -0.00107705      -0.00017931      -0.01048225
C        9.08276026       1.93959197      16.11717278       10      -0.00072134      -0.00015801       0.01247641
C       10.29365035       2.63630859      16.11879060       10      -0.00195496      -0.00017960      -0.02125482
C        7.86998873       4.03733969      16.08551706       10       0.00167428      -0.00110207       0.03115899
C        9.08281742       4.73065348      16.09656003       10      -0.00044592       0.00039719       0.01115672
C        6.66009731       6.14013422      16.04899636       10      -0.00136071      -0.00168216      -0.01602515
C        7.86845824       6.83765064      16.01666265       10      -0.00238564      -0.00188585      -0.01825202
C        5.44415601       8.23918998      16.08551706       10      -0.00043518       0.00056393       0.02186008
C        6.65139610       8.94285520      16.09656003       10      -0.00086241      -0.00232199       0.03043089
O       -1.83248289       8.21901297      14.22550964       11      -0.00302813       0.00056709       0.00932193
