131
Lattice="12.12 0.0 0.0 -6.06 10.496227893867395 0.0 0.0 0.0 40.0" Properties=species:S:1:pos:R:3:tags:I:1:forces:R:3 energy=-1203.0678611550159 stress="0.0027039092361764725 -5.6553744588200076e-08 4.091395620726468e-07 -5.6553744588200076e-08 0.0027037227048536472 5.4210049603695905e-08 4.091395620726468e-07 5.4210049603695905e-08 0.0030763567769459127" pbc="T T F"
C       -0.34696693      -0.44794778       9.96251699        2      -0.00417404      -0.00143329       0.00386877
Ti      -0.35276133       1.31016420      11.28073314        0       0.00041255      -0.00222863       0.00056876
Ti       1.17196382       0.42956844       8.71858358        0      -0.00028516      -0.00010573      -0.00189356
O       -0.32657777       1.29344655       7.77317369        1       0.00485073       0.00062099       0.00616595
O        1.15478802       0.44079477      12.23159545        3      -0.00040012      -0.00620472      -0.17460263
C       -1.85229492       2.17497251       9.96868238        2       0.00228012       0.00080312      -0.00072251
Ti      -1.85112897       3.90510639      11.28128339        0      -0.00389380       0.00444707      -0.00139746
Ti      -0.33178708       3.05294460       8.68659191        0       0.00027461      -0.00229585       0.00551212
O       -1.85251603       3.93723100       7.77345380        1       0.00006383       0.00219470       0.00316533
O       -0.33203282       3.05214003      12.23159545        3      -0.00461707      -0.00045387      -0.24470749
C       -3.37176066       4.78936720       9.96255840        2      -0.00121626      -0.00002652      -0.00356247
Ti      -3.37536254       6.51805076      11.29778346        0       0.00365619       0.00170072       0.00407231
Ti      -1.85149821       5.66645846       8.71856053        0       0.00479197       0.00494332      -0.00163552
O       -3.34717159       6.56586687       7.79733766        1      -0.00599601      -0.00318257      -0.00163102
O       -1.85137627       5.64510711      12.23159545        3      -0.00224155       0.00658569      -0.17583435
C       -4.90643257       7.40865094       9.93746891        2       0.00297980       0.00361177       0.00212000
Ti      -4.91166189       9.18058038      11.30033226        0       0.00183375      -0.00032533      -0.00316774
Ti      -3.37457793       8.29298873       8.74979623        0      -0.00466379       0.00073204       0.00403835
O       -4.85712927       9.18085966       7.79813100        1      -0.00220889      -0.00378668      -0.00204774
O       -3.59121780       8.16749006      12.23159545        3      -0.00484207       0.00214988      -0.61900131
C        2.71188650      -0.45876776      10.06289374        2      -0.00273929      -0.00235842      -0.00189742
Ti       2.67168405       1.32467977      11.29892619        0       0.00324735      -0.00763900       0.00143124
Ti       4.20740672       0.43539188       8.75040755        0       0.00195653       0.00265075       0.00177611
O        2.69849194       1.27600178       7.79702857        1       0.00023471      -0.00174034       0.00098393
O        4.20841146       0.68663188      12.23159545        3      -0.00159266      -0.00409181      -0.61601642
C        1.17176778       2.18430285       9.96112403        2       0.00205952       0.00383481       0.00524207
Ti       1.18659175       3.92992691      11.28204847        0       0.00073874      -0.00323924       0.00487982
Ti       2.69688954       3.04997675       8.68550577        0       0.00655744       0.00043508       0.00121525
O        1.17547149       3.92344173       7.75684409        1       0.00122176       0.00025529      -0.00268397
O        2.69308951       3.09088882      12.23159545        3      -0.00234194       0.00289477      -0.21643457
C       -0.33161598       4.78921213       9.96181032        2      -0.00155301       0.00059646       0.00195588
Ti      -0.32823158       6.51785030      11.29970231        0      -0.00051801       0.00311513      -0.00384330
Ti       1.18150746       5.67767754       8.68610069        0      -0.00774501       0.00555859       0.00095022
O       -0.35523120       6.56564210       7.79708583        1       0.00077371      -0.00191637       0.00760861
O        1.21361144       5.65347609      12.23159545        3      -0.00058538      -0.00074958      -0.21304171
C       -1.85156938       7.44415566      10.06260592        2       0.00050694      -0.00296081       0.00035689
Ti      -1.85193583       9.17290768      11.47618925        0       0.00040088       0.00014969      -0.00268753
Ti      -0.32818869       8.29285923       8.74998230        0       0.00401310      -0.00648957       0.00222355
O       -1.85133236       9.17207780       7.85343634        1      -0.00133452       0.00630542      -0.00128802
O       -0.11312721       8.16797274      12.23159545        3       0.00196921       0.00406293      -0.60895099
C        5.70556086      -0.45901889      10.06274509        2      -0.00287546      -0.00051863      -0.00178753
Ti       5.74491235       1.32452879      11.29950364        0      -0.00112402      -0.00633168      -0.00148081
Ti       7.24276644       0.42826389       8.71919538        0       0.00186030       0.00352066       0.00023494
O        5.71743331       1.27568613       7.79819725        1       0.00110125       0.00060173      -0.00349497
O        7.26150417       0.43975349      12.23159545        3       0.00106968       0.00178816      -0.16982915
C        4.20791936       2.20443428       9.93767840        2      -0.00008871      -0.00275759      -0.00126229
Ti       4.20783438       3.93739098      11.27701906        0      -0.00049031       0.00050316       0.00368705
Ti       5.71822091       3.05019089       8.68552339        0      -0.00214487       0.00196826       0.00369181
O        4.20757080       3.92065309       7.74797259        1       0.00318256       0.00248802       0.00543131
O        5.72274424       3.09176297      12.23159545        3       0.00422902      -0.00281278      -0.21225272
C        2.69565084       4.80086813       9.94340094        2       0.00186589       0.00236256       0.00034961
Ti       2.70426054       6.54248249      11.27808681        0      -0.00123268      -0.00088843       0.00205724
Ti       4.20903077       5.67442188       8.67560110        0      -0.00108695      -0.00581779       0.00350103
O        2.69052645       6.55109355       7.74896784        1      -0.00307692      -0.00191668      -0.00050499
O        4.20851546       5.67373498      12.23159545        3      -0.00109909       0.00240771      -0.18328073
C        1.20322271       7.40881002       9.93823427        2      -0.00125456      -0.00137124      -0.00122815
Ti       1.20861793       9.18013235      11.29985496        0      -0.00312549      -0.00077412      -0.00298585
Ti       2.69174845       8.29376394       8.68716044        0      -0.00219868       0.00239839      -0.00051662
O        1.15476453       9.18009037       7.79814974        1      -0.00168684       0.00024935      -0.00067334
O        2.72862787       8.27758635      12.23159545        3      -0.00037251       0.00055101      -0.20717103
C        8.76397970      -0.44866450       9.96389943        2       0.00099881       0.00252088      -0.00394803
Ti       8.76915881       1.30967141      11.28108582        0      -0.00125001       0.00006337       0.00073405
Ti      10.26728808       0.41931535       8.68843691        0       0.00246171       0.00152799      -0.00190700
O        8.74065137       1.29296186       7.77432969        1       0.00262489       0.00276245       0.00237243
O       10.26826757       0.42227232      12.23159545        3       0.00142379      -0.00309421      -0.24003718
C        7.24382024       2.18480750       9.96254697        2      -0.00042752       0.00030596       0.00144018
Ti       7.22996994       3.92984984      11.28367772        0       0.00137311      -0.00186706      -0.00245401
Ti       8.74668200       3.05246764       8.68812303        0       0.00232028      -0.00036297       0.00077999
O        7.24010887       3.92326024       7.75738013        1       0.00096588       0.00197146      -0.00154719
O        8.74939618       3.05215281      12.23159545        3      -0.00001240      -0.00004466      -0.24138034
C        5.72002185       4.80098380       9.94289837        2       0.00289349       0.00234115       0.00220327
Ti       5.71275046       6.54227808      11.27819796        0      -0.00214378       0.00182935       0.00160563
Ti       7.23620200       5.67831316       8.68563502        0      -0.00229814      -0.00220447       0.00477104
O        5.72672483       6.55173381       7.74870897        1       0.00281622      -0.00472395      -0.00047565
O        7.20336943       5.65400375      12.23159545        3      -0.00223931      -0.00406282      -0.21241812
C        4.20873025       7.42082097       9.94404376        2      -0.00194407      -0.00542073       0.00107000
Ti       4.20808456       9.16354194      11.28343251        0       0.00354612       0.00040197       0.00145869
Ti       5.72581071       8.29466609       8.68713734        0      -0.00086874       0.00189131      -0.00223574
O        4.20796808       9.17541209       7.75801621        1       0.00219414      -0.00076557      -0.00065609
O        5.68842491       8.27764092      12.23159545        3      -0.00121768       0.00268543      -0.21181844
C        0.57092506       0.77311979      15.25922050       10       0.00029815      -0.00146680       0.07605719
C        1.77846551       1.47528585      15.24392845       10       0.00178194       0.00095711       0.08328149
C       -0.64118295       2.87124623      15.26454120       10       0.00080503       0.00242555       0.06746679
C        0.57120658       3.57112245      15.24683077       10       0.00358131       0.00505787       0.10921807
C       -1.85235100       4.97016519      15.25922050       10      -0.00035183      -0.00059948       0.07632676
C       -0.64041255       5.66472979      15.24392845       10       0.00141176      -0.00180019       0.08293855
C       -3.05852852       7.07149081      15.19610975       10      -0.00315150      -0.00232553       0.17443726
C       -1.85213822       7.74631087      15.15428753       10      -0.00267639      -0.00302181      -0.43765093
C       -4.27243148       9.17403230      15.19610975       10      -0.00328298      -0.00093274       0.17680081
C       -3.08497037       9.88130591      15.15428753       10      -0.00032759       0.00019782      -0.42525004
C        2.99399420       0.76718771      15.19610975       10      -0.00312067      -0.00111369       0.17603799
C        4.20796772       1.47457778      15.16403107       10      -0.00557173       0.00037766       0.01158143
C        1.78302339       2.87261351      15.23288548       10       0.00172922       0.00079416       0.07342747
C        2.99541195       3.57247898      15.21097107       10       0.00022027      -0.00001787       0.03139404
C        0.57198134       4.96986433      15.23288548       10       0.00312389       0.00394855       0.07348375
C        1.78427774       5.66995750      15.21097107       10       0.00187708       0.00107154       0.03144451
C       -0.64590238       7.07144434      15.19610975       10       0.00048152      -0.00290291       0.17485863
C        0.57372269       7.76893119      15.16403107       10       0.00329567      -0.00376290       0.01085545
C       -1.85210980       9.16947728      14.70148187       10      -0.00555932       0.00379390       2.13481543
C       -0.61949725       9.88093768      15.15428753       10       0.00177652       0.00509257      -0.43085297
C        5.42168598       0.76683329      15.19610975       10      -0.00053217       0.00573097       0.17580095
C        6.63694300       1.47514388      15.24392845       10       0.00271846       0.00174370       0.08322060
C        4.20779073       2.86888830      15.19636478       10      -0.00129287      -0.00018492       0.01342724
C        5.42001351       3.57251761      15.21097107       10       0.00134077      -0.00178379       0.03133575
C        2.99688904       4.97173505      15.20828946       10      -0.00291407      -0.00153698       0.07064629
C        4.20785501       5.67084779      15.20328869       10      -0.00432378      -0.00016103       0.00742203
C        1.78112378       7.07174962      15.19636478       10       0.00397358      -0.00166858       0.01358440
C        2.99674105       7.76986918      15.21097107       10      -0.00068534       0.00008780       0.03137600
C        0.56804079       9.17385781      15.19610975       10       0.00148249      -0.00033004       0.17577003
C        1.78901361       9.87238704      15.24392845       10       0.00154451      -0.00015243       0.08376746
C        7.84449656       0.77297309      15.25922050       10       0.00194516       0.00040910       0.07606765
C        9.05780959       1.47340833      15.26615902       10      -0.00149976       0.00262139       0.14355675
C        6.63227349       2.87256405      15.23288548       10       0.00286500      -0.00032372       0.07357934
C        7.84407102       3.57118968      15.24683077       10      -0.00038238       0.00259472       0.10957970
C        5.41866608       4.97170119      15.20828946       10      -0.00067378       0.00004277       0.07032202
C        6.63101103       5.67008339      15.21097107       10       0.00280415      -0.00028557       0.03137863
C        4.20784045       7.06909303      15.20828946       10      -0.00253315       0.00055079       0.07005899
C        5.41881804       7.76999068      15.21097107       10      -0.00028986      -0.00104985       0.03158546
C        2.99689496       9.16976011      15.23288548       10      -0.00154858      -0.00158067       0.07334822
C        4.20781175       9.86989144      15.24683077       10      -0.00194135      -0.00375317       0.11018286
C       10.26779799       0.77357173      15.26454120       10      -0.00339228      -0.00275454       0.06744403
C       11.47761308       1.47353409      15.26615902       10       0.00297949      -0.00090927       0.14361741
C        9.05658189       2.87123695      15.26454120       10      -0.00348760       0.00188344       0.06734444
C       10.26771473       3.56915472      15.26615902       10      -0.00234628       0.00093145       0.14360441
C        7.84321377       4.97001129      15.23288548       10       0.00247043      -0.00002797       0.07355265
C        9.05569292       5.66476996      15.24392845       10       0.00164088      -0.00126610       0.08271526
C        6.63427350       7.07183112      15.19636478       10       0.00072182       0.00010650       0.01371630
C        7.84178621       7.76894022      15.16403107       10      -0.00053951       0.00113510       0.01128010
C        5.41868966       9.16984015      15.23288548       10       0.00009245      -0.00152111       0.07336002
C        6.62644623       9.87253260      15.24392845       10       0.00388149      -0.00095352       0.08373648
O       -1.85396795       9.17366761      13.34919910       11       0.00703845      -0.00119207       0.00181704
