132
Lattice="12.12 0.0 0.0 -6.06 10.496227893867395 0.0 0.0 0.0 40.0" Properties=species:S:1:pos:R:3:tags:I:1:forces:R:3 energy=-1209.0300458463983 stress="0.0028289159763141974 2.314412068697239e-06 -1.099135240911297e-06 2.314412068697239e-06 0.0028313867781448844 -5.471659032947068e-07 -1.099135240911297e-06 -5.471659032947068e-07 0.0020234950298708056" pbc="T T F"
C        0.00123185      -0.00204539      10.00315864        2       0.00039762      -0.00134330      -0.00284629
Ti      -0.00084334       1.74851659      11.29947744        0      -0.00143269      -0.00014122       0.00344727
Ti       1.51609951       0.87304558       8.71263603        0      -0.00192857       0.00139949      -0.00181009
O        0.00058247       1.74795052       7.77449711        1      -0.00134967       0.00040303       0.00225550
O        1.51834438       0.87222589      12.23008024        3       0.00039535      -0.00089050       0.11105508
C       -1.51387814       2.62239143      10.00713191        2      -0.00074301       0.00042206      -0.00072324
Ti      -1.51300917       4.37085916      11.29940813        0       0.00206155      -0.00060389       0.00452811
Ti       0.00158174       3.49712201       8.71372152        0       0.00101229      -0.00057772       0.00022073
O       -1.51369457       4.37100379       7.77456684        1      -0.00006819      -0.00118290       0.00298688
O        0.00401252       3.49779647      12.23008024        3      -0.00191408      -0.00045283       0.06911050
C       -3.02840025       5.24626721      10.00337516        2      -0.00127631      -0.00043254      -0.00176147
Ti      -3.02918666       6.99487377      11.29207175        0       0.00085519      -0.00258474       0.00200254
Ti      -1.51347748       6.12078062       8.71235494        0      -0.00057954      -0.00028809      -0.00072296
O       -3.02822702       6.99526073       7.77214852        1      -0.00045687       0.00076387       0.00066950
O       -1.51408853       6.12323768      12.23008024        3       0.00012191      -0.00084194       0.09224493
C       -4.54376236       7.87034894      10.00143500        2      -0.00042456      -0.00134483      -0.00209187
Ti      -4.54397815       9.61957261      11.29180406        0      -0.00162097       0.00098934       0.00141073
Ti      -3.02853659       8.74492826       8.71113325        0      -0.00076283      -0.00116361      -0.00125522
O       -4.54371510       9.62023954       7.77200935        1      -0.00030385      -0.00110080       0.00016639
O       -3.02904740       8.74487624      12.23008024        3       0.00001093      -0.00076730       0.09348343
C        3.03114693      -0.00177237      10.00171194        2      -0.00015643       0.00014860      -0.00133062
Ti       3.03126340       1.74788213      11.29170347        0      -0.00258793       0.00044885       0.00142488
Ti       4.54651635       0.87293800       8.71096809        0       0.00062870       0.00073012      -0.00055123
O        3.03087500       1.74740207       7.77193947        1       0.00092094       0.00028294       0.00002597
O        4.54572164       0.87251007      12.23008024        3       0.00040195      -0.00049587       0.08778026
C        1.51650720       2.62244505      10.00292387        2       0.00105077       0.00080070      -0.00274408
Ti       1.51671352       4.37192491      11.29188002        0      -0.00257395      -0.00174497       0.00051154
Ti       3.03109724       3.49697992       8.71100988        0       0.00066883      -0.00150932       0.00025950
O        1.51549901       4.37135165       7.77256001        1      -0.00181853      -0.00115136      -0.00129743
O        3.03203104       3.49701646      12.23008024        3      -0.00073265      -0.00118305       0.08832300
C        0.00184747       5.24678528      10.00351013        2       0.00065530      -0.00016394      -0.00226357
Ti       0.00111463       6.99573888      11.29186427        0      -0.00158758      -0.00255921       0.00145690
Ti       1.51644504       6.12101459       8.71144354        0      -0.00089078       0.00156166      -0.00218701
O        0.00116992       6.99530553       7.77205893        1      -0.00040700       0.00121415      -0.00020993
O        1.51711545       6.12133254      12.23008024        3      -0.00014010      -0.00003623       0.10004739
C       -1.51363074       7.87038939      10.00180825        2       0.00003401      -0.00091324      -0.00155660
Ti      -1.51416162       9.61989133      11.29180811        0       0.00298120      -0.00154818       0.00163971
Ti       0.00166117       8.74503706       8.71096503        0      -0.00140501       0.00032677       0.00044821
O       -1.51340114       9.61968165       7.77138002        1      -0.00131566       0.00032756       0.00101781
O        0.00049029       8.74574805      12.23008024        3       0.00061532      -0.00068945       0.10522893
C        6.06125056      -0.00187182      10.00180130        2       0.00054989       0.00026041      -0.00159701
Ti       6.06134082       1.74835607      11.29138189        0       0.00283180       0.00016414       0.00259413
Ti       7.57657049       0.87297116       8.71296443        0      -0.00030796       0.00008647      -0.00212962
O        6.06196932       1.74748143       7.77232295        1      -0.00086038      -0.00042235      -0.00013584
O        7.57398073       0.87169992      12.23008024        3       0.00041197       0.00045053       0.08611564
C        4.54627810       2.62245147      10.00141889        2       0.00004762       0.00081166      -0.00192076
Ti       4.54658272       4.37190532      11.29096343        0       0.00165791      -0.00168355       0.00312934
Ti       6.06112678       3.49722205       8.71113392        0      -0.00000021      -0.00171525      -0.00236339
O        4.54621663       4.37134887       7.77087342        1       0.00077482      -0.00124452      -0.00015852
O        6.06120092       3.49725109      12.23008024        3      -0.00005379       0.00009191       0.05948376
C        3.03181982       5.24652890      10.00093618        2       0.00000281       0.00077051      -0.00134345
Ti       3.03140034       6.99533847      11.29103337        0      -0.00087352       0.00070990       0.00170138
Ti       4.54617822       6.12119649       8.70920900        0      -0.00031854      -0.00008641       0.00640521
O        3.03078041       6.99608841       7.77086599        1       0.00066400      -0.00022609      -0.00000676
O        4.54649933       6.12118532      12.23008024        3      -0.00071779       0.00002473       0.08508385
C        1.51624368       7.87032914      10.00168819        2       0.00104623      -0.00132854      -0.00214583
Ti       1.51619268       9.61944422      11.29211573        0       0.00212572       0.00349022       0.00319863
Ti       3.03145327       8.74506159       8.71144579        0      -0.00209474      -0.00067003      -0.00187773
O        1.51664097       9.62031686       7.77223072        1      -0.00087821      -0.00108534       0.00006544
O        3.03096963       8.74315611      12.23008024        3       0.00042461       0.00067386       0.09809590
C        9.09126103      -0.00247862      10.00400779        2      -0.00006233      -0.00035182      -0.00221424
Ti       9.09244118       1.74658899      11.30190784        0       0.00106686      -0.00280676       0.00451047
Ti      10.60629623       0.87274285       8.71401306        0       0.00120133      -0.00081609      -0.00101084
O        9.09180335       1.74790556       7.77504734        1       0.00129512      -0.00025561       0.00246252
O       10.60730869       0.86994313      12.23008024        3      -0.00054280       0.00171710       0.06320109
C        7.57634026       2.62207945      10.00365694        2      -0.00068790       0.00114120      -0.00233046
Ti       7.57530463       4.37208337      11.29027774        0      -0.00403765       0.00100906       0.00130505
Ti       9.09113611       3.49706144       8.71518912        0       0.00090643      -0.00028103      -0.00060204
O        7.57687915       4.37125616       7.77299155        1       0.00300148      -0.00103923      -0.00021870
O        9.08916157       3.49804045      12.23008024        3      -0.00014033       0.00051705       0.14481777
C        6.06029651       5.24690793      10.00085599        2      -0.00138759       0.00025887      -0.00158679
Ti       6.06129034       6.99526472      11.29084546        0       0.00251949      -0.00134106       0.00315730
Ti       7.57616536       6.12106150       8.71120822        0       0.00144633       0.00072308      -0.00291279
O        6.06160528       6.99594088       7.77089803        1       0.00086858       0.00025805       0.00017839
O        7.57616256       6.12126271      12.23008024        3      -0.00042267      -0.00006928       0.08489896
C        4.54634968       7.86971101      10.00084562        2      -0.00063514      -0.00087855      -0.00104400
Ti       4.54626137       9.61860354      11.29163192        0      -0.00066306       0.00332828       0.00150165
Ti       6.06126770       8.74525395       8.71116172        0       0.00136446       0.00033711      -0.00168717
O        4.54623584       9.62073436       7.77265650        1      -0.00032452       0.00162741      -0.00035068
O        6.06167437       8.74367245      12.23008024        3       0.00131056       0.00041655       0.09685082
C        0.06467113       0.05809468      17.56204378       10      -0.00029981       0.00153090      -0.02519637
C        1.27391788       0.76003171      17.57043201       10       0.00215877      -0.00054973       0.00341868
C       -1.13090204       2.14840842      17.53767311       10      -0.00587981       0.00168737       0.48647550
C        0.06134666       2.85758817      17.54531185       10      -0.00303125      -0.00098720       0.00754234
C       -2.36640691       4.28503987      17.53766756       10       0.00130045       0.00252471       0.25469303
C       -1.15518700       4.96274796      17.54530929       10       0.00370503      -0.00212144       0.02697057
C       -3.57781883       6.36648081      17.56204323       10       0.00060896       0.00283389       0.00854958
C       -2.36525326       7.06271169      17.57043181       10       0.00038023       0.00072809       0.00753681
C       -4.78856049       8.45939402      17.56015084       10      -0.00356590       0.00056451      -0.01390589
C       -3.57695134       9.15901197      17.57144050       10      -0.00098614      -0.00298141      -0.03185449
C        2.48446129       0.06119735      17.57246552       10       0.00051411      -0.00116849      -0.02356482
C        3.69482070       0.76153333      17.57144041       10       0.00098776      -0.00129724      -0.02681518
C        1.27723529       2.15822622      17.56204399       10      -0.00437108      -0.00095638      -0.02778488
C        2.48439927       2.86062949      17.55298386       10      -0.00248589      -0.00122801      -0.03510829
C        0.05780700       4.26003334      17.51918397       10       0.00375180      -0.00121386       0.12429186
C        1.26859166       4.95910869      17.53085392       10       0.00325250      -0.00219096      -0.06799902
C       -1.15284236       6.36541345      17.56204323       10       0.00055136      -0.00009536       0.00008208
C        0.05928574       7.06052824      17.55298396       10      -0.00471687       0.00026442      -0.03369004
C       -2.36511325       8.46081562      17.57246573       10       0.00088507       0.00199198      -0.03383027
C       -1.15320898       9.15872495      17.57144050       10      -0.00012510       0.00081457      -0.02854674
C        4.90526087       0.06096151      17.57246552       10      -0.00019954       0.00201022      -0.02697959
C        6.11606098       0.76008890      17.57043201       10       0.00013926      -0.00050737       0.01153626
C        3.69480206       2.16059902      17.56015071       10      -0.00323779      -0.00037578      -0.01100955
C        4.90532774       2.86059840      17.55298386       10      -0.00108060       0.00269128      -0.02357114
C        2.48217356       4.26001087      17.53910036       10       0.00350878      -0.00053270      -0.04215000
C        3.69389341       4.96011844      17.53631250       10       0.00383041       0.00083366      -0.01396620
C        1.27068061       6.35982702      17.53910026       10      -0.00277645       0.00072023      -0.03555067
C        2.48261667       7.05960714      17.53631239       10      -0.00266184      -0.00045851      -0.00813522
C        0.05845297       8.45914310      17.56015084       10       0.00068436       0.00178538      -0.00344036
C        1.26998014       9.15792468      17.55298371       10       0.00189376      -0.00265510      -0.03619164
C        7.32612299       0.05883099      17.56204378       10      -0.00085152      -0.00185636      -0.00832737
C        8.53977539       0.76192454      17.54531166       10      -0.00030311      -0.00010329       0.02937483
C        6.11281953       2.15839861      17.56204399       10      -0.00372390      -0.00120879       0.01472168
C        7.32788413       2.85850016      17.54531185       10      -0.00154329      -0.00136019       0.00544066
C        4.90600085       4.26015417      17.53910036       10       0.00112409       0.00276979      -0.03257402
C        6.11953798       4.95979589      17.53085392       10       0.00378125      -0.00078291      -0.04612799
C        3.69452420       6.35993854      17.53323450       10      -0.00275464       0.00113537      -0.05134513
C        4.90653107       7.06024372      17.53631239       10       0.00080583      -0.00303259      -0.01566490
C        2.48239604       8.45899715      17.53910009       10       0.00284656       0.00036640      -0.04822518
C        3.69467717       9.16091540      17.53085351       10       0.00305714       0.00068590      -0.07946655
C        9.75476263       0.06275064      17.51918392       10       0.00115123       0.00143834       0.13604186
C       10.97093589       0.76115767      17.54531166       10       0.00078260       0.00386274       0.01836369
C        8.52101134       2.14991635      17.53767311       10      -0.00114301      -0.00125095       0.24820184
C        9.75285885       2.86215426      17.29331385       10      -0.00113101       0.00261465      -2.02093022
C        7.33035557       4.26076011      17.51918397       10       0.00112032      -0.00088505       0.13991756
C        8.54343860       4.96416820      17.54530929       10       0.00014088       0.00031451      -0.00027008
C        6.11869133       6.36055523      17.53910026       10       0.00077326       0.00095530      -0.03805090
C        7.33032068       7.06108906      17.55298396       10       0.00032721      -0.00070841      -0.03244722
C        4.90699102       8.45957527      17.53910009       10       0.00047588      -0.00123602      -0.04365087
C        6.11994299       9.15759077      17.55298371       10      -0.00114377       0.00030448      -0.02799089
O        9.82849227       2.81616727      15.70876865       11       0.00209136       0.00834913      -0.00278491
H        9.06442223       3.28542289      15.32811656       12       0.00453807       0.00129159       0.00447298
