131
Lattice="12.12 0.0 0.0 -6.06 10.496227893867395 0.0 0.0 0.0 40.0" Properties=species:S:1:pos:R:3:tags:I:1:forces:R:3 energy=-1204.9507927324994 stress="0.0028452570199241885 3.9844394247508576e-07 3.643392964044619e-06 3.9844394247508576e-07 0.0028457252025366614 -1.1028571747389212e-06 3.643392964044619e-06 -1.1028571747389212e-06 0.0021023973759664344" pbc="T T F"
C       -0.00113768       0.00062736      10.00454223        2       0.00022143       0.00003619       0.00025980
Ti      -0.00004942       1.74891525      11.31080745        0       0.00050441      -0.00073026      -0.00137717
Ti       1.51493743       0.87468380       8.69738712        0       0.00018336      -0.00031323       0.00072279
O        0.00170981       1.74866390       7.77206540        1       0.00053602      -0.00002696      -0.00005285
O        1.51357210       0.87479938      12.23159545        3       0.00015965       0.00006457       0.15020555
C       -1.51485835       2.62338225      10.00275485        2       0.00033079      -0.00026102       0.00050964
Ti      -1.51457744       4.36967193      11.30952544        0       0.00011357       0.00114753       0.00060528
Ti       0.00032265       3.49894627       8.69248508        0       0.00027728      -0.00027662       0.00106937
O       -1.51502832       4.37580638       7.77308503        1       0.00041208       0.00024710       0.00090659
O        0.00126831       3.49785955      12.23159545        3       0.00011630      -0.00069613       0.13094441
C       -3.02956935       5.24636030      10.00674119        2       0.00052000      -0.00047322       0.00062051
Ti      -3.02705107       6.99956004      11.33243777        0       0.00098368       0.00199448       0.00179244
Ti      -1.51461430       6.12032614       8.70088387        0       0.00038727      -0.00008182       0.00120029
O       -3.02793802       6.99951681       7.78200788        1       0.00044038      -0.00002192       0.00108334
O       -1.51307962       6.11700478      12.23159545        3       0.00085081      -0.00038484       0.09801001
C       -4.54426531       7.87224673      10.01106552        2       0.00031046      -0.00004811       0.00032013
Ti      -4.54467074       9.62141561      11.32066945        0       0.00307040      -0.00152921       0.00225718
Ti      -3.03082392       8.74735284       8.70250068        0       0.00059754      -0.00019162       0.00133451
O       -4.54226716       9.62019015       7.77850651        1       0.00071560      -0.00037105       0.00093657
O       -3.03208625       8.74862585      12.23159545        3       0.00032797      -0.00003236       0.00375152
C        3.03043302      -0.00059962      10.01193941        2       0.00030824      -0.00013707       0.00016755
Ti       3.03012398       1.74770447      11.31187756        0       0.00061695      -0.00081018       0.00027973
Ti       4.54545153       0.87414105       8.69860314        0       0.00034845      -0.00004195       0.00107801
O        3.03076002       1.74683052       7.77504695        1       0.00044026      -0.00027740       0.00034307
O        4.54662294       0.87433713      12.23159545        3       0.00045325       0.00042791       0.07591209
C        1.51557591       2.62366264      10.00359314        2       0.00022495      -0.00051900       0.00090208
Ti       1.51489332       4.37353472      11.31078195        0      -0.00024678      -0.00053985      -0.00126495
Ti       3.02991616       3.49788194       8.69191525        0       0.00041684       0.00014885       0.00061538
O        1.51513380       4.37388290       7.77196517        1       0.00021694      -0.00016814      -0.00005358
O        3.03013300       3.49814402      12.23159545        3       0.00038605       0.00042281       0.07691069
C        0.00075714       5.24667383      10.00471197        2       0.00032399      -0.00028875       0.00106275
Ti      -0.00399234       7.00026626      11.32152666        0      -0.00061726       0.00052196       0.00173882
Ti       1.51427915       6.12316407       8.69427097        0       0.00090446      -0.00043686       0.00120072
O       -0.00280445       6.99917421       7.77937613        1       0.00044516      -0.00015053       0.00114939
O        1.51540830       6.12269303      12.23159545        3       0.00151918      -0.00073643       0.11943591
C       -1.51480570       7.87229526      10.02069237        2       0.00048030      -0.00013957      -0.00026426
Ti      -1.51453807       9.61873835      11.33345045        0      -0.00114438      -0.00155762       0.00183452
Ti       0.00233034       8.74780158       8.70066405        0       0.00041895      -0.00014975       0.00132989
O       -1.51569122       9.61902187       7.78217339        1       0.00039309      -0.00022543       0.00105617
O        0.00663553       8.74831840      12.23159545        3       0.00092662      -0.00035145       0.11262501
C        6.06193941       0.00069521      10.00681032        2       0.00075864      -0.00000663       0.00058509
Ti       6.06100201       1.74951619      11.31088732        0       0.00009383      -0.00072997      -0.00013066
Ti       7.57407527       0.87451679       8.69387688        0       0.00039425      -0.00015655       0.00096837
O        6.05841956       1.74818686       7.77291536        1       0.00018006      -0.00010414       0.00055779
O        7.57653612       0.87604629      12.23159545        3       0.00077407      -0.00001564       0.09095548
C        4.54513599       2.62463286      10.00398079        2       0.00035361      -0.00031149       0.00050366
Ti       4.54483668       4.37333960      11.31087620        0       0.00075262      -0.00034022      -0.00155488
Ti       6.06022224       3.49858568       8.69157987        0       0.00020661       0.00004432       0.00096870
O        4.54491707       4.37347483       7.77162427        1       0.00042566      -0.00011949      -0.00059357
O        6.05931301       3.49900929      12.23159545        3       0.00044652      -0.00022086       0.08707758
C        3.02979917       5.24807166      10.00403748        2       0.00037237      -0.00010088      -0.00016156
Ti       3.02973799       6.99754326      11.31075916        0       0.00044895       0.00059652      -0.00131136
Ti       4.54573642       6.12335398       8.69173267        0       0.00016416      -0.00034481       0.00065088
O        3.02962830       6.99713933       7.77198173        1       0.00036721      -0.00004128      -0.00012809
O        4.54499832       6.12288985      12.23159545        3       0.00002035      -0.00023340       0.07881150
C        1.51673679       7.87226417      10.00468060        2       0.00050780       0.00001047       0.00100873
Ti       1.51913792       9.62354390      11.30939794        0      -0.00088550      -0.00049369       0.00065515
Ti       3.02996212       8.74649452       8.69245682        0       0.00046396      -0.00007964       0.00102781
O        1.51296702       9.62047909       7.77310185        1       0.00013131      -0.00034564       0.00099729
O        3.03154138       8.74632961      12.23159545        3       0.00067481       0.00040564       0.13019272
C        9.09074517       0.00021039      10.00283320        2       0.00045072      -0.00000918       0.00053325
Ti       9.09031580       1.74949089      11.31088244        0       0.00074999      -0.00021884      -0.00239484
Ti      10.60513993       0.87461206       8.69045989        0       0.00041155      -0.00019383       0.00129266
O        9.08935190       1.74972399       7.77174309        1       0.00022346      -0.00002934      -0.00062777
O       10.60450798       0.87506976      12.23159545        3       0.00037747      -0.00011660       0.14122037
C        7.57448478       2.62458065      10.00315923        2       0.00050031      -0.00016923       0.00083025
Ti       7.57558928       4.37330798      11.31099309        0       0.00078199       0.00021984      -0.00043260
Ti       9.08965975       3.49958615       8.69361554        0       0.00041783      -0.00012058       0.00104625
O        7.57521519       4.37540604       7.77281527        1       0.00030944       0.00011023       0.00046024
O        9.08990615       3.49724099      12.23159545        3       0.00054946      -0.00050775       0.09418131
C        6.05970649       5.24801339      10.00401858        2       0.00057424      -0.00000202       0.00057177
Ti       6.06076513       6.99778627      11.31063149        0       0.00124517       0.00015333       0.00031170
Ti       7.57583469       6.12295228       8.69819490        0       0.00033988      -0.00009495       0.00121626
O        6.06246815       6.99808109       7.77454261        1       0.00055515      -0.00005542       0.00046689
O        7.57665443       6.12265278      12.23159545        3       0.00004170      -0.00055118       0.08164631
C        4.54565395       7.87182742      10.00344691        2       0.00064772       0.00025270       0.00096894
Ti       4.54576901       9.62179377      11.31103076        0       0.00075936       0.00020474      -0.00161874
Ti       6.06017186       8.74692933       8.69698747        0       0.00040784       0.00016318       0.00091234
O        4.54640091       9.62049879       7.77203535        1       0.00034703      -0.00037978      -0.00008070
O        6.05929674       8.74768754      12.23159545        3       0.00000805       0.00005557       0.12303977
C        0.04072097       0.07018877      17.39079945       10      -0.00263087       0.00002820      -0.02114834
C        1.24904449       0.77075241      17.37550740       10       0.00330415      -0.00035418      -0.00306030
C       -1.16903996       2.16795621      17.39612015       10      -0.00180091      -0.00031943      -0.03105664
C        0.04256903       2.86715378      17.37840972       10      -0.00146172      -0.00061900      -0.02599937
C       -2.38010608       4.26515597      17.39079945       10      -0.00170348      -0.00161866      -0.01669821
C       -1.16947039       4.96143906      17.37550740       10      -0.00156347       0.00022800      -0.02620520
C       -3.58590137       6.36771959      17.32768870       10      -0.00079200      -0.00076271       0.01160722
C       -2.38049050       7.04942409      17.28586648       10      -0.00105544       0.00311319      -0.12512955
C       -4.80145719       8.47120479      17.32768870       10      -0.00299272      -0.00035149       0.01964794
C       -3.60877215       9.17481971      17.28586648       10       0.00461892      -0.00105432      -0.11767407
C        2.46409081       0.06331068      17.32768870       10       0.00119136      -0.00303493       0.02583706
C        3.67871014       0.76742711      17.29561002       10      -0.00100385       0.00007117      -0.06999059
C        1.25462086       2.16875207      17.36446443       10      -0.00101489      -0.00057937      -0.02343873
C        2.46588853       2.86611298      17.34255002       10      -0.00159400       0.00153477      -0.03157137
C        0.04347006       4.26715023      17.36446443       10      -0.00130259       0.00000115      -0.02389524
C        1.25356569       4.96672092      17.34255002       10      -0.00065920       0.00037491      -0.02665704
C       -1.17479796       6.36779333      17.32768870       10      -0.00282234       0.00052815       0.01086583
C        0.04244468       7.06671787      17.29561002       10      -0.00112095      -0.00053889      -0.06121123
C       -2.38191051       8.46609135      16.83306082       10       0.00009959       0.00106056      -0.25945239
C       -1.15450280       9.17361775      17.28586648       10      -0.00134668      -0.00060786      -0.12270632
C        4.89345564       0.06211128      17.32768870       10      -0.00011451      -0.00012662      -0.00001600
C        6.10841528       0.76983193      17.37550740       10      -0.00015651       0.00062754      -0.03312769
C        3.67907012       2.16376191      17.32794373       10      -0.00115756       0.00112413      -0.04261090
C        4.89206663       2.86599408      17.34255002       10      -0.00076891       0.00155075      -0.01220619
C        2.46697942       4.26746131      17.33986841       10      -0.00106911       0.00125228      -0.03957185
C        3.67922861       4.96695284      17.33486764       10      -0.00198858       0.00058634      -0.04323411
C        1.25135443       6.36880388      17.32794373       10      -0.00031875       0.00016139      -0.03155597
C        2.46655800       7.06772567      17.34255002       10      -0.00077840       0.00094757      -0.02805247
C        0.03885866       8.47042517      17.32768870       10      -0.00029134      -0.00020864       0.01521111
C        1.25942187       9.16879280      17.37550740       10      -0.00048477       0.00137263      -0.02310612
C        7.31712586       0.06907383      17.39079945       10       0.00166350       0.00204236      -0.01605438
C        8.52968539       0.76933306      17.39773797       10       0.00147587       0.00211437      -0.02335513
C        6.10365014       2.16778366      17.36446443       10       0.00006320       0.00066223      -0.01112367
C        7.31620685       2.86704412      17.37840972       10       0.00053807       0.00022212      -0.01373466
C        4.89121639       4.26718134      17.33986841       10      -0.00233375       0.00144870      -0.01818710
C        6.10516880       4.96696446      17.34255002       10      -0.00222873       0.00056246      -0.01323672
C        3.67891043       6.36668508      17.33986841       10      -0.00190120      -0.00032700      -0.03102539
C        4.89198737       7.06817940      17.34255002       10      -0.00178255      -0.00057592      -0.03194264
C        2.46722373       8.46550660      17.36446443       10       0.00007472       0.00128455      -0.02440457
C        3.67928238       9.16625727      17.37840972       10      -0.00053788       0.00141516      -0.02698756
C        9.73895757       0.06886681      17.39612015       10      -0.00163662      -0.00049954      -0.02792413
C       10.94888129       0.76977929      17.39773797       10       0.00266827       0.00064446      -0.00013796
C        8.52785961       2.16745547      17.39612015       10       0.00037778      -0.00004944      -0.03453637
C        9.73976586       2.86497866      17.39773797       10       0.00005469      -0.00151893      -0.01981823
C        7.31560926       4.26677895      17.36446443       10      -0.00278924      -0.00070455      -0.01199924
C        8.52876460       4.96170902      17.37550740       10      -0.00062449      -0.00253844      -0.02509739
C        6.10679813       6.36870948      17.32794373       10      -0.00152858       0.00033085      -0.03250778
C        7.31600622       7.06718992      17.29561002       10      -0.00003260      -0.00070246      -0.06070798
C        4.89028980       8.46591769      17.36446443       10      -0.00242068      -0.00115851      -0.02689675
C        6.09835603       9.16973332      17.37550740       10       0.00214705       0.00150408      -0.01461941
O       -2.39652656       8.47043660      15.50251078       11      -0.00269123       0.00229029      -0.00527937
