132
Lattice="12.12 0.0 0.0 -6.06 10.496227893867395 0.0 0.0 0.0 40.0" Properties=species:S:1:pos:R:3:tags:I:1:forces:R:3 energy=-1207.826521495557 stress="0.0026301615280366723 2.8748760759446296e-07 1.2853505208955231e-06 2.8748760759446296e-07 0.002597051653173944 1.048383944452951e-06 1.2853505208955231e-06 1.048383944452951e-06 0.002968190766138651" pbc="T T F"
C        0.26923367       0.36479588       9.98779107        2       0.00099824      -0.00237752       0.00303728
Ti       0.25709405       2.11924297      11.30063841        0      -0.00310769      -0.00353596      -0.00128317
Ti       1.77256554       1.24565365       8.70497766        0      -0.00820740       0.00240573       0.00492825
O        0.24719586       2.12372930       7.77535996        1      -0.00243972       0.00318837       0.00404061
O        1.78869291       1.24240741      12.23008024        3      -0.00443674      -0.00420451      -0.32391831
C       -1.27114556       2.98624904      10.03661598        2      -0.00214787       0.00023180       0.00420617
Ti      -1.23286866       4.76864877      11.24584773        0       0.00374131       0.00287567      -0.00433892
Ti       0.26151927       3.87057757       8.70567396        0       0.00214027      -0.00256492       0.00396192
O       -1.25824963       4.73281328       7.76964861        1      -0.00009442       0.00411855       0.00154383
O        0.25953055       3.87940499      12.23008024        3      -0.00487670       0.00344452      -0.33720085
C       -2.77279970       5.63665971       9.96928498        2       0.00354350      -0.00208285      -0.00193083
Ti      -2.77216712       7.37343643      11.28885175        0      -0.00174229      -0.00017610       0.00325949
Ti      -1.26107223       6.49733938       8.68992645        0       0.00109225       0.00546179       0.00380542
O       -2.77304716       7.37486502       7.74958890        1       0.00319087       0.00036998       0.00465889
O       -1.24867742       6.52265684      12.23008024        3      -0.00069036      -0.00351060      -0.42289747
C       -4.28646438       8.24623945       9.98863857        2      -0.00111765       0.00216917       0.00328961
Ti      -4.28206208       9.99103971      11.27787329        0       0.00339949       0.00348207       0.00129327
Ti      -2.77276104       9.12087334       8.69674609        0       0.00171347       0.00331846       0.00258599
O       -4.28765564       9.99547360       7.75770900        1       0.00148837       0.00314686       0.00172195
O       -2.77252539       9.11773405      12.23008024        3      -0.00116509       0.00007168      -0.33631399
C        3.28738553       0.37142255       9.99402202        2      -0.00124103       0.00153147      -0.00167163
Ti       3.28743958       2.12163441      11.28971859        0       0.00135964      -0.00254530      -0.00000007
Ti       4.80230336       1.24651904       8.70504623        0       0.00302803      -0.00362977       0.00514214
O        3.28711117       2.12044641       7.76279345        1       0.00056567      -0.00016052      -0.00062013
O        4.78721972       1.24253073      12.23008024        3      -0.00104464      -0.00153319      -0.32441650
C        1.77735478       2.99870719       9.99627494        2       0.00357629      -0.00148832      -0.00527943
Ti       1.77605522       4.74490127      11.28358595        0      -0.00225674      -0.00221985      -0.00040987
Ti       3.28683690       3.86957106       8.70280853        0       0.00020277       0.00274581       0.00372953
O        1.76813752       4.74169888       7.76269123        1      -0.00291665      -0.00057855       0.00345721
O        3.28757171       3.87589133      12.23008024        3       0.00223962      -0.00049215      -0.31505919
C        0.26507918       5.62862956       9.98719857        2      -0.00015970      -0.00522307      -0.00274373
Ti       0.25668941       7.36887434      11.28841986        0      -0.00313724      -0.00340755       0.00225778
Ti       1.77123020       6.49760067       8.69746266        0       0.00112845      -0.00182981       0.00317420
O        0.25896292       7.37304735       7.75592228        1      -0.00094221      -0.00091703       0.00156577
O        1.77609153       6.49309894      12.23008024        3      -0.00324279      -0.00511645      -0.35565982
C       -1.25854863       8.24643203       9.98864015        2      -0.00497193       0.00245652       0.00087525
Ti      -1.26366466       9.99210872      11.27794520        0       0.00216163      -0.00439188       0.00218303
Ti       0.25731408       9.12163477       8.70120683        0      -0.00192270      -0.00004312       0.00294683
O       -1.25810961       9.99623900       7.75810461        1       0.00122111      -0.00197765      -0.00242158
O        0.24426140       9.10438895      12.23008024        3       0.00187958       0.00112785      -0.30715271
C        6.30558129       0.36505600       9.98786578        2       0.00145249       0.00153451       0.00070871
Ti       6.31902129       2.11902527      11.30039725        0      -0.00114636      -0.00078258      -0.00217720
Ti       7.83014342       1.24970563       8.72728795        0      -0.00152295      -0.00001647       0.00299802
O        6.32760574       2.12390978       7.77479465        1       0.00125753       0.00206460       0.00414431
O        7.70428015       1.15614917      12.23008024        3      -0.00446531       0.00008474      -0.62936265
C        4.79736434       2.99840587       9.99571276        2       0.00114268       0.00269502       0.00255936
Ti       4.80045102       4.74394693      11.28360550        0      -0.00659341       0.00130166      -0.00060264
Ti       6.31253439       3.87082717       8.70527192        0       0.00299372      -0.00094283       0.00376097
O        4.80599060       4.74142208       7.76258571        1       0.00190173       0.00040361       0.00163265
O        6.31632850       3.87953837      12.23008024        3      -0.00156576      -0.00053679      -0.34085527
C        3.28689232       5.62026497       9.99072014        2       0.00620839      -0.00313517       0.00190711
Ti       3.28776336       7.36173761      11.27743522        0      -0.00056472       0.00157355       0.00186342
Ti       4.80232648       6.49697999       8.69747141        0       0.00198717       0.00486205       0.00323311
O        3.28706703       7.37902391       7.76134559        1      -0.00067936      -0.00142032       0.00130530
O        4.79941678       6.49206798      12.23008024        3      -0.00032834       0.00056110      -0.35836482
C        1.77151781       8.23683097       9.99115106        2       0.00566482       0.00075493      -0.00266309
Ti       1.76206214       9.98159646      11.29996476        0      -0.00092965      -0.00413650      -0.00018010
Ti       3.28700757       9.11815475       8.71349093        0       0.00262492      -0.00305412      -0.00031533
O        1.78135251      10.00174485       7.77705747        1       0.00094565       0.00250383       0.00326746
O        3.28753736       9.10127110      12.23008024        3      -0.00028945       0.00092486      -0.26568925
C        9.34723634       0.38564203      10.04273219        2       0.00354080      -0.00079870      -0.00257286
Ti       9.34825227       2.06458140      11.31038571        0      -0.00204666      -0.00434133       0.00335588
Ti      10.86431914       1.24921611       8.72800069        0       0.00661942       0.00210432      -0.00321921
O        9.34747435       2.11820964       7.78337229        1      -0.00052109       0.00106583       0.00097545
O       10.99215952       1.15602294      12.23008024        3      -0.00481936      -0.00432282      -0.63116046
C        7.84643027       2.98633061      10.03635939        2       0.00040886      -0.00210310       0.00227063
Ti       7.80895743       4.76869049      11.24473456        0      -0.00819910       0.00022547      -0.00150035
Ti       9.34708033       3.86712484       8.72597639        0       0.00019111       0.00080523       0.00465986
O        7.83251242       4.73320507       7.76921221        1       0.00368497      -0.00065011       0.00365459
O        9.34731232       4.15036961      12.23008024        3       0.00446806       0.00396545      -0.50617924
C        6.30958664       5.62798732       9.98648587        2      -0.00171052       0.00001148       0.00514390
Ti       6.31878629       7.36778431      11.28863381        0      -0.00146555      -0.00035188       0.00009604
Ti       7.83506901       6.49760311       8.68967969        0       0.00055383       0.00121346       0.00195884
O        6.31508672       7.37257414       7.75583648        1       0.00137338       0.00115897       0.00298027
O        7.82357467       6.52204365      12.23008024        3       0.00124099       0.00191529      -0.42492159
C        4.80240501       8.23641835       9.99083448        2       0.00327165       0.00060787       0.00290458
Ti       4.81306634       9.98102782      11.29947745        0      -0.00041649       0.00282233       0.00348623
Ti       6.31698740       9.12100496       8.70139157        0      -0.00048208       0.00229046      -0.00026733
O        4.79350158      10.00144343       7.77733015        1      -0.00464345       0.00338374       0.00303789
O        6.33003147       9.10360642      12.23008024        3       0.00323126       0.00175801      -0.30781578
C       -0.34115380      -0.53332901      15.28835957       10       0.00369931       0.00618493       0.06981644
C        0.86734869       0.16958438      15.29674780       10      -0.00000597       0.00123815       0.12605678
C       -1.53426038       1.55570847      15.26398890       10      -0.00338604       0.00248591       0.54857495
C       -0.34564272       2.26793374      15.27162764       10      -0.00037750       0.00144489       0.09121939
C       -2.77099524       3.70231086      15.26398335       10      -0.00414930      -0.00404453       1.29707320
C       -1.56062816       4.37439803      15.27162508       10       0.00003726      -0.00239932       0.14534497
C       -3.98390477       5.77841427      15.28835902       10      -0.00029470      -0.00263349       0.09897536
C       -2.77110611       6.47424711      15.29674760       10       0.00106446      -0.00291573       0.08092876
C       -5.19552904       7.86934520      15.28646663       10       0.00629324       0.00001559       0.07753560
C       -3.98363971       8.56909564      15.29775629       10       0.00067146      -0.00344859       0.10443600
C        2.07830713      -0.52901317      15.29878131       10       0.00237052       0.00160371       0.06502955
C        3.28875375       0.17119150      15.29775620       10       0.00291738       0.00010828       0.11972544
C        0.87140962       1.56764429      15.28835978       10       0.00111949       0.00364489       0.07073340
C        2.07779162       2.27016188      15.27929965       10       0.00117816       0.00141418       0.09202227
C       -0.34722820       3.66993202      15.24549976       10      -0.00260586      -0.00066733       0.29483072
C        0.86278093       4.36858451      15.25716971       10      -0.00480795       0.00209455       0.04738267
C       -1.55822435       5.77838787      15.28835902       10      -0.00357643      -0.00075929       0.09898392
C       -0.34606617       6.47059985      15.27929975       10      -0.00429761       0.00010614       0.08363299
C       -2.77127346       7.87240917      15.29878152       10       0.00135037      -0.00348541       0.05359547
C       -1.55889854       8.56904961      15.29775629       10       0.00017953      -0.00006784       0.10448639
C        4.49925518      -0.52899797      15.29878131       10      -0.00251314       0.00066990       0.06509370
C        5.71027350       0.16960413      15.29674780       10      -0.00154934       0.00348298       0.12603589
C        3.28881574       1.57014411      15.28646650       10      -0.00130018       0.00012606       0.06979532
C        4.49978996       2.27021231      15.27929965       10       0.00299816       0.00138336       0.09214514
C        2.07685181       3.66957850      15.26541615       10      -0.00044988       0.00096293       0.06310912
C        3.28875826       4.36959053      15.26262829       10       0.00371825       0.00208909       0.13576093
C        0.86503641       5.76944744      15.26541605       10      -0.00242631       0.00370306       0.08405796
C        2.07674183       6.46933672      15.26262818       10       0.00142280      -0.00175404       0.13972746
C       -0.34702901       7.86930780      15.28646663       10      -0.00107655       0.00070635       0.07757064
C        0.86458811       8.56732558      15.27929950       10      -0.00021826       0.00079513       0.10183240
C        6.91875752      -0.53328097      15.28835957       10      -0.00122450       0.00243187       0.06954753
C        8.13316618       0.16959171      15.27162745       10      -0.00168758       0.00063891       0.11072155
C        5.70625074       1.56772701      15.28835978       10       0.00027683       0.00337005       0.07060421
C        6.92342310       2.26800721      15.27162764       10      -0.00147713      -0.00220186       0.09166587
C        4.50077975       3.66964551      15.26541615       10       0.00241146       0.00162760       0.06303795
C        5.71500444       4.36861640      15.25716971       10       0.00103242       0.00341989       0.04762797
C        3.28879750       5.76953777      15.25955029       10      -0.00004744       0.00003258       0.07547295
C        4.50083745       6.46934829      15.26262818       10       0.00186439      -0.00177632       0.13969627
C        2.07689065       7.86866202      15.26541588       10       0.00001234      -0.00243804       0.06544476
C        3.28868749       8.57008306      15.25716930       10       0.00312279      -0.00513034       0.07616269
C        9.34885337      -0.53015449      15.24549971       10      -0.00072670      -0.00013132       0.31100584
C       10.56458280       0.16962036      15.27162745       10      -0.00282528      -0.00185088       0.11072776
C        8.11207051       1.55571498      15.26398890       10      -0.00073872       0.00180833       0.55231191
C        9.34891561       2.26959129      15.01962964       10      -0.00059667      -0.00350573      -1.10055011
C        6.92508165       3.66999617      15.24549976       10       0.00141916      -0.00052241       0.29475543
C        8.13852600       4.37442363      15.27162508       10       0.00083222      -0.00340191       0.14603346
C        5.71270344       5.76954118      15.26541605       10       0.00159533       0.00093399       0.08397752
C        6.92389098       6.47063517      15.27929975       10      -0.00129273      -0.00014126       0.08374869
C        4.50052639       7.86868631      15.26541588       10       0.00204119      -0.00267537       0.06559376
C        5.71288237       8.56738213      15.27929950       10      -0.00151818      -0.00478773       0.10179019
O        9.34804541       2.30869711      13.53040729       11       0.00261095      -0.00310423       0.00513759
H        9.34727299       3.30551675      13.23340676       12      -0.00025235       0.00118035       0.00156974
