130
Lattice="12.12 0.0 0.0 -6.06 10.496227893867395 0.0 0.0 0.0 40.0" Properties=species:S:1:pos:R:3:tags:I:1:forces:R:3 energy=-1200.6554593686758 stress="0.0028135885742261463 6.76158399958476e-08 1.6090676489739056e-07 6.76158399958476e-08 0.0028137118406115656 2.1406122670893584e-07 1.6090676489739056e-07 2.1406122670893584e-07 0.0022823254719807006" pbc="T T F"
C       -0.00003690       0.00000404      10.00233273        2       0.00005791       0.00004809       0.00451159
Ti      -0.00026127       1.75023049      11.31164789        0       0.00009203       0.00078114       0.00236144
Ti       1.51502708       0.87471843       8.69325388        0      -0.00019523      -0.00014243       0.00519509
O        0.00006343       1.74924590       7.76892684        1       0.00010482      -0.00068869       0.00295462
O        1.51621023       0.87544838      12.23159545        3       0.00050656       0.00031003      -0.04414567
C       -1.51523941       2.62432620      10.00102122        2      -0.00017284       0.00067282       0.00275124
Ti      -1.51569925       4.37380905      11.30658777        0      -0.00004346       0.00041916      -0.00160256
Ti       0.00001189       3.49876600       8.69238458        0      -0.00009283      -0.00015839       0.00249713
O       -1.51481247       4.37339059       7.76809511        1       0.00029708      -0.00051061      -0.00022134
O       -0.00053444       3.49972456      12.23159545        3       0.00016730       0.00128636      -0.04720516
C       -3.03029861       5.24804741      10.00041632        2       0.00029306       0.00012718       0.00101328
Ti      -3.03014060       6.99688545      11.30650412        0       0.00024511      -0.00030824      -0.00164031
Ti      -1.51505451       6.12275775       8.69122796        0      -0.00014353       0.00001383       0.00060904
O       -3.02991082       6.99765184       7.76802794        1      -0.00027866       0.00060391      -0.00036734
O       -1.51636526       6.12211114      12.23159545        3       0.00075420       0.00033599      -0.04220253
C       -4.54488816       7.87183495      10.00086794        2       0.00036533      -0.00048315       0.00237893
Ti      -4.54448847       9.62089627      11.31100155        0       0.00012744      -0.00011681       0.00207079
Ti      -3.03001412       8.74686058       8.69213286        0      -0.00016215       0.00012428       0.00267164
O       -4.54510299       9.62171755       7.76882867        1      -0.00046271       0.00058095       0.00266676
O       -3.03006332       8.74597963      12.23159545        3       0.00116978      -0.00062748      -0.04663118
C        3.03031034      -0.00010682      10.00131394        2       0.00054199      -0.00004460       0.00292971
Ti       3.03107947       1.75000079      11.30858539        0       0.00139413       0.00082932      -0.00046075
Ti       4.54497855       0.87470599       8.69203060        0      -0.00032614      -0.00026388       0.00149584
O        3.02973895       1.74923351       7.76858978        1      -0.00104344      -0.00065512       0.00127644
O        4.54557606       0.87514375      12.23159545        3       0.00079486      -0.00013976      -0.04758260
C        1.51507896       2.62433419      10.00135616        2       0.00031230       0.00075237       0.00303019
Ti       1.51536605       4.37387751      11.30666566        0       0.00036198       0.00042847      -0.00106711
Ti       3.02999787       3.49873660       8.69214256        0      -0.00037904      -0.00022677       0.00111505
O        1.51489615       4.37337003       7.76817488        1      -0.00027610      -0.00055291      -0.00008582
O        3.03069301       3.49917567      12.23159545        3       0.00023762       0.00087652      -0.04477845
C       -0.00002426       5.24879599      10.00078446        2       0.00021426       0.00025363       0.00126536
Ti      -0.00005939       6.99744340      11.30732864        0       0.00024035      -0.00008023      -0.00013258
Ti       1.51507345       6.12275105       8.69125778        0       0.00005204       0.00001420       0.00030001
O        0.00001941       6.99749898       7.76796715        1      -0.00000597       0.00006430      -0.00074275
O        1.51617196       6.12228884      12.23159545        3      -0.00045698       0.00063416      -0.04019575
C       -1.51452071       7.87193801      10.00075649        2       0.00031683      -0.00017585       0.00115947
Ti      -1.51458566       9.62154154      11.30649287        0       0.00052254       0.00002833      -0.00106967
Ti       0.00000105       8.74693870       8.69110069        0      -0.00005533       0.00019392       0.00078957
O       -1.51508503       9.62150285       7.76805721        1      -0.00056066       0.00015063      -0.00001916
O        0.00006478       8.74776554      12.23159545        3       0.00044988      -0.00043107      -0.03728958
C        6.06006598      -0.00000033      10.00070053        2       0.00009023      -0.00025165       0.00117213
Ti       6.06008707       1.74975489      11.30760816        0       0.00015397       0.00018291      -0.00135767
Ti       7.57501368       0.87469457       8.69180069        0       0.00027855      -0.00014500       0.00118835
O        6.05994182       1.74914038       7.76815843        1      -0.00018573      -0.00045193      -0.00042113
O        7.57473921       0.87517966      12.23159545        3      -0.00087497      -0.00028584      -0.04310750
C        4.54555564       2.62436149      10.00051308        2       0.00010647       0.00024351       0.00155374
Ti       4.54535245       4.37345386      11.30762705        0       0.00014902      -0.00003715      -0.00083352
Ti       6.05996154       3.49874477       8.69101121        0       0.00004013      -0.00011837      -0.00061504
O        4.54476178       4.37347626       7.76818550        1      -0.00042789      -0.00006054      -0.00060368
O        6.06017672       3.49902675      12.23159545        3      -0.00018787      -0.00027513       0.03371402
C        3.03016216       5.24820904      10.00060423        2      -0.00011174       0.00007209       0.00123893
Ti       3.03013942       6.99716040      11.30655149        0      -0.00012264      -0.00028401      -0.00119113
Ti       4.54500233       6.12281501       8.69177343        0       0.00007236       0.00034562       0.00045626
O        3.02991720       6.99759192       7.76805660        1       0.00022549       0.00047482      -0.00047141
O        4.54523959       6.12244617      12.23159545        3      -0.00053739      -0.00030723      -0.03692964
C        1.51459881       7.87200411      10.00076418        2       0.00006905      -0.00014545       0.00115078
Ti       1.51469465       9.62171473      11.30645904        0       0.00003789      -0.00026455      -0.00104928
Ti       3.03001824       8.74685579       8.69199021        0       0.00016777       0.00023341       0.00201089
O        1.51505645       9.62145300       7.76800048        1       0.00040308       0.00011707      -0.00023049
O        3.03042515       8.74676561      12.23159545        3      -0.00091236      -0.00062088      -0.04400178
C        9.08963306      -0.00008137      10.00103327        2      -0.00050699      -0.00003213       0.00245675
Ti       9.08882994       1.74999274      11.30772997        0      -0.00114307       0.00071440      -0.00099402
Ti      10.60495102       0.87471652       8.69302514        0       0.00016362      -0.00010955       0.00481021
O        9.09022616       1.74918477       7.76834489        1       0.00105951      -0.00062030       0.00073753
O       10.60326618       0.87571873      12.23159545        3      -0.00076616       0.00043090      -0.04538286
C        7.57449872       2.62437990      10.00032801        2      -0.00019670       0.00009949       0.00115494
Ti       7.57478431       4.37339539      11.30796989        0      -0.00022088      -0.00002049      -0.00142038
Ti       9.09000664       3.49870725       8.69179086        0       0.00034116      -0.00022934       0.00106053
O        7.57511469       4.37346711       7.76811731        1       0.00026618       0.00007295      -0.00065118
O        9.08944336       3.49900070      12.23159545        3      -0.00036711       0.00081970      -0.03733797
C        6.06004961       5.24760557      10.00023473        2      -0.00018348      -0.00013701       0.00101996
Ti       6.05999474       6.99625335      11.30755870        0      -0.00015657      -0.00143828      -0.00187061
Ti       7.57496636       6.12282679       8.69164479        0      -0.00002714       0.00045381       0.00074183
O        6.05994376       6.99779378       7.76832353        1       0.00004564       0.00129595       0.00021045
O        7.57489513       6.12240716      12.23159545        3       0.00024484      -0.00064040      -0.03404635
C        4.54481608       7.87190601      10.00093256        2      -0.00031384      -0.00057109       0.00215808
Ti       4.54454725       9.62116659      11.31037315        0      -0.00001467      -0.00004007       0.00131029
Ti       6.05998781       8.74680286       8.69296301        0       0.00004230       0.00027340       0.00446614
O        4.54511074       9.62164868       7.76870994        1       0.00066265       0.00055284       0.00229359
O        6.06004325       8.74464781      12.23159545        3      -0.00029091      -0.00089057      -0.04493937
C        0.04480317       0.06742294      16.59475334       10       0.00252312      -0.00019342       0.02532557
C        1.25735732       0.76735288      16.59475334       10       0.00351319       0.00261646       0.02008661
C       -1.16747734       2.16667057      16.59475334       10       0.00038525       0.00024747       0.02071626
C        0.04497930       2.86721270      16.59475334       10      -0.00168270       0.00101863       0.01057226
C       -2.37933802       4.26583641      16.59475334       10       0.00109687      -0.00104270       0.00310674
C       -1.16755123       4.96601306      16.59475334       10       0.00103383       0.00128017       0.01162180
C       -3.59139024       6.36512255      16.59475334       10       0.00266726      -0.00078458       0.00223047
C       -2.37911910       7.06437868      16.59475334       10       0.00122434      -0.00091239       0.01156867
C       -4.80322374       8.46413661      16.59475334       10      -0.00175813      -0.00102078       0.01938301
C       -3.59029457       9.16362212      16.59475334       10       0.00090861      -0.00021108       0.00761959
C        2.46887471       0.06775929      16.59475334       10       0.00307823       0.00140503       0.02328017
C        3.68166315       0.76760749      16.59475334       10       0.00220414       0.00065611       0.00550428
C        1.25743994       2.16656847      16.59475334       10      -0.00098853       0.00186110       0.02262503
C        2.46979094       2.86700849      16.59475334       10      -0.00074773      -0.00023086       0.00398841
C        0.04497317       4.26513071      16.59475334       10      -0.00012885       0.00107982       0.00147848
C        1.25741942       4.96610751      16.59475334       10       0.00008154      -0.00005674       0.01323948
C       -1.16732371       6.36494693      16.59475334       10       0.00046413       0.00185903       0.00992481
C        0.04497399       7.06501500      16.59475334       10      -0.00014843      -0.00113530       0.01593832
C       -2.37960517       8.46478842      16.59475334       10      -0.00008679      -0.00085865       0.00210709
C       -1.16646140       9.16443419      16.59475334       10      -0.00058150      -0.00163890       0.01412204
C        4.89277263       0.06801496      16.59475334       10       0.00129521       0.00114434       0.00225921
C        6.10501406       0.76771153      16.59475334       10       0.00122004       0.00131855       0.01157191
C        3.68137981       2.16700711      16.59475334       10      -0.00128688      -0.00056825       0.01209692
C        4.89326546       2.86675577      16.59475334       10      -0.00042243      -0.00128470       0.01461879
C        2.46939447       4.26573556      16.59475334       10      -0.00006810      -0.00039135       0.00294746
C        3.68144187       4.96571016      16.59475334       10       0.00001842       0.00016693       0.01075693
C        1.25723531       6.36492509      16.59475334       10       0.00034987       0.00105697       0.01146992
C        2.46909999       7.06443772      16.59475334       10       0.00101924       0.00038781       0.01205061
C        0.04503452       8.46489347      16.59475334       10      -0.00146535      -0.00149445       0.01238050
C        1.25671931       9.16453837      16.59475334       10      -0.00160961      -0.00121697       0.01303870
C        7.31708432       0.06801214      16.59475334       10       0.00046016       0.00158540      -0.00028104
C        8.52825452       0.76765836      16.59475334       10       0.00030064       0.00059776       0.00571574
C        6.10511113       2.16686294      16.59475334       10       0.00007247       0.00102412       0.01234535
C        7.31701305       2.86677548      16.59475334       10      -0.00047753      -0.00195594       0.01382117
C        4.89311328       4.26616612      16.59475334       10      -0.00014170      -0.00011031       0.01248967
C        6.10509175       4.96585726      16.59475334       10      -0.00000101      -0.00099236       0.01370200
C        3.68143518       6.36512773      16.59475334       10       0.00053012       0.00004408      -0.00084728
C        4.89303524       7.06443033      16.59475334       10       0.00066528      -0.00190884       0.00621538
C        2.46973399       8.46479301      16.59475334       10      -0.00263202      -0.00082829       0.00382969
C        3.68036032       9.16374902      16.59475334       10      -0.00324850      -0.00162158       0.00446232
C        9.74094344       0.06787356      16.59475334       10      -0.00066803       0.00004052       0.02083158
C       10.95220777       0.76740607      16.59475334       10       0.00192921       0.00113199       0.01849639
C        8.52883319       2.16697264      16.59475334       10      -0.00113986       0.00077299       0.00984202
C        9.74040643       2.86689591      16.59475334       10      -0.00266573       0.00070424       0.00359147
C        7.31710082       4.26619820      16.59475334       10      -0.00112306      -0.00127955       0.01316957
C        8.52876138       4.96567912      16.59475334       10      -0.00107859       0.00096012       0.00996306
C        6.10497106       6.36513693      16.59475334       10       0.00157097      -0.00087292       0.00871595
C        7.31694056       7.06435040      16.59475334       10      -0.00030186      -0.00014857       0.00586811
C        4.89351581       8.46435200      16.59475334       10      -0.00366058      -0.00270902       0.01885070
C        6.10504702       9.16353733      16.59475334       10      -0.00253477       0.00017937       0.01653483
