130
Lattice="12.12 0.0 0.0 -6.06 10.496227893867395 0.0 0.0 0.0 40.0" Properties=species:S:1:pos:R:3:tags:I:1:forces:R:3 energy=-1200.4957799904996 stress="0.0027968071883090117 1.2489069467813874e-07 -7.126793683247775e-08 1.2489069467813874e-07 0.002796861304053114 -8.084620198662167e-08 -7.126793683247775e-08 -8.084620198662167e-08 0.002712168948283262" pbc="T T F"
C        0.00011086       0.00019319       9.99495012        2       0.00000670       0.00012286       0.00500408
Ti      -0.00000622       1.74922845      11.30938265        0      -0.00004263      -0.00007884       0.00270013
Ti       1.51499856       0.87470764       8.69729290        0       0.00016708       0.00008064       0.00573823
O        0.00004111       1.74925459       7.77406936        1      -0.00009060       0.00002792       0.00397189
O        1.51558389       0.87510508      12.23159545        3      -0.00034756      -0.00012360      -0.04639516
C       -1.51462219       2.62343165       9.99357451        2      -0.00021211       0.00007718       0.00553366
Ti      -1.51484767       4.37280175      11.31337925        0       0.00006840      -0.00070023       0.00411693
Ti      -0.00005162       3.49876853       8.69757086        0      -0.00007356       0.00019831       0.00648885
O       -1.51481399       4.37350933       7.77457247        1       0.00037903       0.00040026       0.00467261
O       -0.00053779       3.49908737      12.23159545        3       0.00014894      -0.00094967      -0.04025131
C       -3.02931300       5.24840772       9.99336737        2      -0.00084495      -0.00057089       0.00576469
Ti      -3.03040439       6.99783328      11.31344301        0      -0.00038229      -0.00007789       0.00334114
Ti      -1.51506071       6.12277260       8.69837827        0      -0.00003138       0.00008145       0.00823460
O       -3.02982308       6.99762513       7.77458082        1       0.00064855       0.00020657       0.00487354
O       -1.51718604       6.12160818      12.23159545        3      -0.00025794      -0.00042877      -0.05123584
C       -4.54530968       7.87287748       9.99349288        2      -0.00026876      -0.00028822       0.00544255
Ti      -4.54524943       9.62179476      11.31029142        0       0.00006062       0.00014437       0.00248394
Ti      -3.02998814       8.74679618       8.69772420        0       0.00000872      -0.00027803       0.00707587
O       -4.54505829       9.62164581       7.77420866        1       0.00015209       0.00000976       0.00419128
O       -3.03034497       8.74601249      12.23159545        3      -0.00070293       0.00047887      -0.04028906
C        3.02909073       0.00009693       9.99402154        2       0.00017741       0.00045841       0.00592499
Ti       3.02902289       1.74883508      11.31219961        0      -0.00019394      -0.00005888       0.00418365
Ti       4.54503646       0.87484026       8.69789687        0       0.00032288       0.00006620       0.00680393
O        3.02979867       1.74923009       7.77432504        1      -0.00006225      -0.00026107       0.00406423
O        4.54679326       0.87751867      12.23159545        3      -0.00070020       0.00015501      -0.03732637
C        1.51462401       2.62328485       9.99392249        2       0.00029395       0.00019638       0.00568369
Ti       1.51483567       4.37248572      11.31327968        0       0.00024093      -0.00044549       0.00511951
Ti       3.03013901       3.49869286       8.69785158        0       0.00034846       0.00022440       0.00618632
O        1.51486109       4.37347329       7.77463102        1      -0.00037302       0.00045453       0.00506767
O        3.03340837       3.49911399      12.23159545        3      -0.00000104      -0.00039927      -0.03760177
C        0.00002077       5.24735988       9.99438868        2       0.00019777      -0.00026500       0.00663752
Ti      -0.00009376       6.99726211      11.31328375        0       0.00000193      -0.00029470       0.00548502
Ti       1.51505162       6.12277894       8.69850287        0      -0.00010987       0.00009078       0.00823447
O        0.00002546       6.99751902       7.77480513        1       0.00010878       0.00017601       0.00660838
O        1.51663777       6.12190798      12.23159545        3       0.00012401      -0.00044140      -0.05574288
C       -1.51548122       7.87254749       9.99450217        2      -0.00003221      -0.00007586       0.00660677
Ti      -1.51583774       9.62194763      11.31345937        0      -0.00015963       0.00053207       0.00442702
Ti       0.00000329       8.74687753       8.69857271        0      -0.00005273      -0.00006703       0.00851399
O       -1.51500832       9.62141551       7.77469239        1       0.00024850      -0.00046324       0.00547933
O        0.00003434       8.74803315      12.23159545        3      -0.00015251       0.00034473      -0.05856975
C        6.05983652      -0.00060192       9.99381354        2      -0.00002161       0.00100924       0.00633006
Ti       6.05990162       1.74894612      11.31383847        0      -0.00007007       0.00007803       0.00337009
Ti       7.57497244       0.87485600       8.69811904        0      -0.00028025      -0.00004241       0.00691085
O        6.05997126       1.74916268       7.77459010        1      -0.00000583      -0.00064480       0.00383172
O        7.57356393       0.87775765      12.23159545        3       0.00035556       0.00013112      -0.03881745
C        4.54433395       2.62364358       9.99303484        2       0.00027668       0.00032586       0.00538211
Ti       4.54450552       4.37360935      11.31396430        0      -0.00024087       0.00010327       0.00332360
Ti       6.06004044       3.49875550       8.69854103        0       0.00003565       0.00013070       0.00653087
O        4.54483227       4.37346193       7.77457771        1      -0.00036442       0.00023005       0.00349278
O        6.06054694       3.49952527      12.23159545        3      -0.00017094       0.00015835      -0.07553732
C        3.02930114       5.24822558       9.99358583        2       0.00082020      -0.00069430       0.00615053
Ti       3.03047136       6.99765114      11.31349361        0       0.00043184      -0.00004014       0.00465153
Ti       4.54511993       6.12268623       8.69807460        0      -0.00006446      -0.00005582       0.00679424
O        3.02983179       6.99759302       7.77470559        1      -0.00073351       0.00027900       0.00525031
O        4.54698216       6.12015504      12.23159545        3       0.00030689       0.00018434      -0.04373808
C        1.51528571       7.87240427       9.99465304        2       0.00017670      -0.00028698       0.00706470
Ti       1.51551429       9.62196364      11.31369202        0       0.00047961       0.00027319       0.00429340
Ti       3.02996026       8.74683048       8.69792224        0      -0.00004369      -0.00018519       0.00744024
O        1.51498288       9.62138492       7.77478593        1      -0.00015836      -0.00056211       0.00544070
O        3.03025327       8.74653175      12.23159545        3       0.00076229       0.00033234      -0.04242012
C        9.09086598       0.00004380       9.99390168        2      -0.00018054       0.00028197       0.00582723
Ti       9.09099639       1.74887478      11.31292646        0       0.00009132      -0.00021327       0.00292157
Ti      10.60496375       0.87472736       8.69733663        0      -0.00027694       0.00011246       0.00598111
O        9.09015459       1.74918553       7.77437400        1       0.00003353      -0.00032421       0.00395159
O       10.60372027       0.87544387      12.23159545        3       0.00063253      -0.00006479      -0.04331671
C        7.57560257       2.62365831       9.99298192        2      -0.00038535       0.00038383       0.00504280
Ti       7.57551850       4.37375557      11.31395929        0      -0.00005648       0.00004229       0.00259149
Ti       9.08985883       3.49867962       8.69792022        0      -0.00036785       0.00024989       0.00621109
O        7.57509022       4.37346086       7.77448505        1       0.00030859       0.00018210       0.00322743
O        9.08668212       3.49910190      12.23159545        3       0.00012310      -0.00054476      -0.04257198
C        6.05997701       5.24878070       9.99290997        2      -0.00002945      -0.00047745       0.00509107
Ti       6.05999529       6.99868141      11.31301363        0      -0.00012864       0.00004251       0.00332477
Ti       7.57486598       6.12270434       8.69795692        0       0.00008579      -0.00019799       0.00666179
O        6.05993737       6.99773023       7.77434164        1      -0.00010829       0.00017910       0.00385619
O        7.57338502       6.12012954      12.23159545        3      -0.00032707       0.00023341      -0.04707840
C        4.54535718       7.87293135       9.99369372        2       0.00006354      -0.00042589       0.00565167
Ti       4.54532448       9.62182141      11.31087132        0       0.00010290       0.00038418       0.00287650
Ti       6.06000265       8.74679353       8.69733254        0      -0.00001818      -0.00046749       0.00620610
O        4.54503799       9.62158406       7.77430273        1      -0.00035698       0.00001379       0.00448859
O        6.05997229       8.74496351      12.23159545        3       0.00014389       0.00064261      -0.04124938
C        0.04474606       0.06747118      16.02633229       10       0.00562997       0.00128640       0.02592452
C        1.25709639       0.76716443      16.02633229       10       0.00299565       0.00384704       0.00968818
C       -1.16724494       2.16681134      16.02633229       10       0.00436201      -0.00008584       0.02305961
C        0.04484770       2.86655433      16.02633229       10      -0.00013684       0.00227197       0.00542965
C       -2.37976644       4.26575954      16.02633229       10       0.00342631      -0.00285041       0.01070335
C       -1.16703094       4.96568188      16.02633229       10       0.00075140       0.00194053       0.02494795
C       -3.59163120       6.36488765      16.02633229       10       0.00360618      -0.00230743       0.00908346
C       -2.37868517       7.06490188      16.02633229       10      -0.00043648      -0.00112180       0.02654343
C       -4.80282919       8.46450710      16.02633229       10       0.00113035      -0.00263743       0.02277071
C       -3.59072227       9.16393995      16.02633229       10      -0.00009724      -0.00142775       0.00578839
C        2.46895969       0.06719570      16.02633229       10       0.00365445       0.00477994       0.02383035
C        3.68127722       0.76755850      16.02633229       10       0.00330257       0.00239197       0.00856254
C        1.25688545       2.16665045      16.02633229       10       0.00078382       0.00336159       0.02347461
C        2.46958429       2.86667896      16.02633229       10       0.00077267       0.00054881       0.00616721
C        0.04500154       4.26585447      16.02633229       10       0.00023898       0.00194630       0.00730664
C        1.25720478       4.96564613      16.02633229       10      -0.00027232       0.00050581       0.02570143
C       -1.16711980       6.36488697      16.02633229       10      -0.00084545       0.00361954      -0.00048352
C        0.04526425       7.06501991      16.02633229       10      -0.00187237      -0.00089010       0.02749435
C       -2.37883646       8.46437898      16.02633229       10      -0.00029780       0.00016315       0.00655118
C       -1.16681992       9.16436875      16.02633229       10      -0.00041134      -0.00262187       0.02704646
C        4.89293649       0.06812119      16.02633229       10       0.00127630       0.00375749       0.00922039
C        6.10490157       0.76731358      16.02633229       10       0.00202388       0.00087061       0.00862027
C        3.68106119       2.16684187      16.02633229       10      -0.00025428       0.00042912       0.01422880
C        4.89352427       2.86705884      16.02633229       10       0.00137954      -0.00219321      -0.02577395
C        2.46967069       4.26569281      16.02633229       10      -0.00000502       0.00036330       0.01125155
C        3.68119956       4.96595373      16.02633229       10       0.00004686       0.00008723       0.00237077
C        1.25749424       6.36498031      16.02633229       10      -0.00146618       0.00222784      -0.00005592
C        2.46908852       7.06509351      16.02633229       10       0.00028935      -0.00025304       0.02784541
C        0.04522708       8.46485416      16.02633229       10      -0.00206183      -0.00108715       0.00038489
C        1.25716591       9.16445525      16.02633229       10      -0.00136471      -0.00382518       0.02728805
C        7.31687488       0.06841899      16.02633229       10       0.00041842       0.00256821       0.00627244
C        8.52839004       0.76784408      16.02633229       10       0.00025513      -0.00024391       0.00802802
C        6.10484736       2.16761841      16.02633229       10       0.00170640       0.00064858      -0.00731065
C        7.31631939       2.86712246      16.02633229       10       0.00087871      -0.00386827      -0.03012482
C        4.89356988       4.26589687      16.02633229       10       0.00010549      -0.00031295      -0.01208725
C        6.10505440       4.96555651      16.02633229       10      -0.00027623      -0.00200162      -0.03316655
C        3.68193318       6.36493789      16.02633229       10      -0.00067172      -0.00019002       0.00631997
C        4.89327606       7.06462283      16.02633229       10      -0.00063698      -0.00311726       0.00447316
C        2.46932403       8.46468292      16.02633229       10      -0.00333054      -0.00226078       0.00520737
C        3.68109272       9.16436588      16.02633229       10      -0.00372882      -0.00461270       0.00592858
C        9.74073169       0.06759530      16.02633229       10       0.00022067       0.00151175       0.02286643
C       10.95244699       0.76739022      16.02633229       10      -0.00100327       0.00277021       0.00858607
C        8.52864722       2.16711640      16.02633229       10       0.00040432       0.00086959       0.00994360
C        9.74018656       2.86683586      16.02633229       10      -0.00334938       0.00204689       0.00193581
C        7.31658717       4.26604813      16.02633229       10      -0.00092697      -0.00204138      -0.01662057
C        8.52892804       4.96578933      16.02633229       10      -0.00346295       0.00267979      -0.00545044
C        6.10516902       6.36523576      16.02633229       10       0.00043397      -0.00213131       0.00598146
C        7.31713385       7.06431072      16.02633229       10      -0.00431641       0.00019053       0.00088971
C        4.89321164       8.46466982      16.02633229       10      -0.00292498      -0.00360683       0.02247036
C        6.10522960       9.16381220      16.02633229       10      -0.00539674      -0.00101064       0.00819890
