131
Lattice="12.12 0.0 0.0 -6.06 10.496227893867395 0.0 0.0 0.0 40.0" Properties=species:S:1:pos:R:3:tags:I:1:forces:R:3 energy=-1205.389911296935 stress="0.0028650962015222335 -5.610119288314502e-07 1.2126233568449027e-06 -5.610119288314502e-07 0.002864495683897063 -1.61067659322958e-06 1.2126233568449027e-06 -1.61067659322958e-06 0.0021814224803460994" pbc="T T F"
C       -0.00262819       0.00144904      10.00058617        2      -0.00009134      -0.00008015       0.00035647
Ti      -0.00014962       1.74864110      11.30345974        0      -0.00003238      -0.00084614      -0.00333362
Ti       1.51402938       0.87558035       8.69523865        0       0.00007560      -0.00050454       0.00122782
O        0.00186954       1.74898692       7.76866121        1       0.00074979      -0.00024682      -0.00069335
O        1.51241929       0.87462544      12.23159545        3      -0.00007024       0.00001770       0.02128768
C       -1.51473711       2.62306576      10.00114268        2       0.00015346      -0.00033626       0.00067301
Ti      -1.51433449       4.36821889      11.30302546        0      -0.00011381       0.00126476      -0.00013573
Ti       0.00112182       3.49935195       8.69163918        0      -0.00021493      -0.00065386       0.00099140
O       -1.51504556       4.37614460       7.77074849        1       0.00005732       0.00061955       0.00072070
O        0.00106449       3.49688036      12.23159545        3      -0.00039775      -0.00106331       0.02239469
C       -3.03000946       5.24522499      10.00373217        2       0.00012112      -0.00041526       0.00123428
Ti      -3.02686382       7.00341477      11.32956710        0       0.00030052       0.00263296       0.00128099
Ti      -1.51498872       6.11921266       8.69917023        0       0.00009200       0.00007842       0.00155323
O       -3.02819913       6.99998635       7.78084939        1       0.00005734      -0.00010919       0.00074362
O       -1.51362208       6.11402647      12.23159545        3       0.00063678      -0.00042567      -0.01696518
C       -4.54547055       7.87194919      10.01169610        2      -0.00003322      -0.00003519       0.00074972
Ti      -4.54495327       9.62119956      11.31152166        0       0.00346585      -0.00205779       0.00313202
Ti      -3.03146789       8.74749472       8.70315356        0       0.00029238      -0.00026231       0.00144970
O       -4.54195720       9.61989006       7.77685658        1       0.00072292      -0.00061356       0.00063533
O       -3.03699263       8.75013166      12.23159545        3       0.00001664      -0.00010886      -0.21528787
C        3.03003330       0.00008711      10.01286604        2      -0.00011614      -0.00025189       0.00057364
Ti       3.02969218       1.74468164      11.31090455        0       0.00023785      -0.00071739      -0.00167029
Ti       4.54700773       0.87482237       8.69785626        0      -0.00030244      -0.00018922       0.00148486
O        3.03124712       1.74672043       7.77408906        1       0.00011797      -0.00016426      -0.00028500
O        4.54703044       0.87609947      12.23159545        3      -0.00013469       0.00085458       0.03395866
C        1.51473379       2.62429409      10.00149978        2      -0.00031724      -0.00063285       0.00115178
Ti       1.51450491       4.37321795      11.30580037        0      -0.00063000      -0.00064170      -0.00252516
Ti       3.02994995       3.49806601       8.69123444        0       0.00017518       0.00018648       0.00082010
O        1.51574280       4.37440953       7.76968877        1      -0.00016128      -0.00029329      -0.00032963
O        3.02884797       3.49703225      12.23159545        3      -0.00014411       0.00032472       0.05596264
C        0.00092266       5.24608312      10.00282564        2      -0.00009883      -0.00043660       0.00158715
Ti      -0.00654451       7.00069971      11.32049571        0      -0.00085586       0.00047163      -0.00020186
Ti       1.51399570       6.12336017       8.69408076        0       0.00062347      -0.00058832       0.00136571
O       -0.00342418       6.99951369       7.77848905        1       0.00028155      -0.00028389       0.00066708
O        1.51432991       6.12283488      12.23159545        3       0.00120436      -0.00087259       0.01195633
C       -1.51495753       7.87201865      10.02348434        2       0.00006510      -0.00017491       0.00030719
Ti      -1.51968508       9.61558342      11.33325774        0      -0.00221099      -0.00181982       0.00107201
Ti       0.00309814       8.74852725       8.69954691        0      -0.00012715      -0.00033594       0.00158039
O       -1.51628148       9.61879561       7.78149302        1       0.00009269      -0.00018215       0.00077317
O        0.00819709       8.74945546      12.23159545        3       0.00066176      -0.00062952      -0.03260146
C        6.06225760       0.00121221      10.00433287        2       0.00026876      -0.00011457       0.00127334
Ti       6.06123058       1.74989557      11.30529912        0      -0.00033087      -0.00090292      -0.00106903
Ti       7.57374544       0.87455883       8.69330572        0       0.00035453      -0.00015445       0.00108544
O        6.05835743       1.74846248       7.77077005        1      -0.00040761      -0.00060303       0.00047982
O        7.57753570       0.87554849      12.23159545        3       0.00066239      -0.00035360       0.05785307
C        4.54571285       2.62512626      10.00277930        2       0.00016230      -0.00030870       0.00092741
Ti       4.54464617       4.37335154      11.30640916        0       0.00055941      -0.00058683      -0.00288432
Ti       6.05942610       3.49894108       8.69185061        0       0.00030286      -0.00023683       0.00085017
O        4.54468210       4.37358589       7.76933011        1       0.00033737      -0.00028167      -0.00073149
O        6.05965124       3.49882016      12.23159545        3       0.00040429      -0.00057317       0.03498149
C        3.03019744       5.24778094      10.00361560        2       0.00013956      -0.00020407      -0.00000566
Ti       3.02917694       6.99806997      11.30605052        0       0.00008034       0.00047765      -0.00248947
Ti       4.54545085       6.12304956       8.69116475        0      -0.00028740      -0.00041965       0.00078088
O        3.02947414       6.99643760       7.76991474        1      -0.00005556       0.00009954      -0.00037526
O        4.54471383       6.12404619      12.23159545        3      -0.00045624      -0.00023032       0.06213491
C        1.51690553       7.87210960      10.00318249        2       0.00020463       0.00006158       0.00156749
Ti       1.51891935       9.62385889      11.30451323        0      -0.00143458      -0.00076464      -0.00003380
Ti       3.02995051       8.74560115       8.69216757        0       0.00029979       0.00032441       0.00084567
O        1.51255907       9.62020464       7.77143639        1      -0.00063374      -0.00050735       0.00073379
O        3.03140521       8.74735623      12.23159545        3       0.00049974       0.00062388       0.02214382
C        9.09091266       0.00029805      10.00144204        2       0.00025956      -0.00012107       0.00072607
Ti       9.09078947       1.74886339      11.30531607        0       0.00042045      -0.00033757      -0.00508564
Ti      10.60478341       0.87467065       8.68752317        0       0.00067364      -0.00038247       0.00175202
O        9.08868913       1.74988508       7.76926482        1       0.00015556      -0.00015192      -0.00151818
O       10.60581185       0.87424470      12.23159545        3       0.00040491      -0.00022438       0.00855206
C        7.57525666       2.62406507      10.00215450        2       0.00064286      -0.00052856       0.00084342
Ti       7.57566330       4.37272755      11.30617934        0       0.00046379       0.00010789      -0.00177472
Ti       9.08938614       3.49973521       8.69237500        0       0.00026437      -0.00027390       0.00129781
O        7.57476934       4.37520638       7.77058785        1       0.00019844       0.00049974       0.00026394
O        9.09093161       3.49613039      12.23159545        3       0.00062308      -0.00063788       0.06932417
C        6.05934114       5.24714033      10.00296909        2       0.00024729      -0.00020835       0.00095747
Ti       6.06300392       6.99942293      11.31013230        0       0.00076860      -0.00010208      -0.00186075
Ti       7.57577077       6.12130983       8.69750316        0      -0.00004097       0.00020017       0.00138628
O        6.06252846       6.99768034       7.77358498        1       0.00008350      -0.00014889      -0.00027096
O        7.57545741       6.12072565      12.23159545        3      -0.00080022      -0.00075307       0.04686329
C        4.54446425       7.87210632      10.00172745        2       0.00024749       0.00042743       0.00124506
Ti       4.54540246       9.62195386      11.30355920        0       0.00042749       0.00042127      -0.00346877
Ti       6.05889270       8.74721971       8.69484406        0       0.00030443       0.00010020       0.00129743
O        4.54598607       9.61998271       7.76875631        1       0.00042794      -0.00062936      -0.00071118
O        6.05863698       8.74882513      12.23159545        3      -0.00026633       0.00003887       0.03301171
C        0.04136506       0.07021597      16.96448366       10      -0.00144120       0.00010237      -0.00507325
C        1.25002081       0.77075755      16.94919161       10       0.00286774      -0.00027021      -0.02526614
C       -1.16876086       2.16790235      16.96980436       10      -0.00071285      -0.00006724       0.00111779
C        0.04292921       2.86760099      16.95209393       10      -0.00050629      -0.00076598      -0.00572560
C       -2.38030558       4.26493315      16.96448366       10      -0.00108527      -0.00161254       0.01683996
C       -1.16932439       4.96145394      16.94919161       10      -0.00096145       0.00011143       0.01114519
C       -3.58636511       6.36769426      16.90137291       10      -0.00062549      -0.00036429       0.04141805
C       -2.38032458       7.04969457      16.85955069       10      -0.00074366       0.00236321      -0.13218382
C       -4.80089496       8.47074039      16.90137291       10      -0.00156349      -0.00020560       0.05822909
C       -3.60779917       9.17453292      16.85955069       10       0.00391685      -0.00036353      -0.09192964
C        2.46514272       0.06359161      16.90137291       10       0.00132817      -0.00221525       0.05052381
C        3.67974092       0.76827561      16.86929423       10      -0.00071163       0.00043349      -0.01879778
C        1.25506093       2.16844316      16.93814864       10      -0.00024626      -0.00075739      -0.00219954
C        2.46680216       2.86660151      16.91623423       10      -0.00105129       0.00091601       0.00269445
C        0.04369646       4.26683254      16.93814864       10      -0.00080114      -0.00024201       0.00010162
C        1.25413163       4.96670353      16.91623423       10      -0.00063009       0.00037850      -0.00330892
C       -1.17451285       6.36766270      16.90137291       10      -0.00213366       0.00074618       0.02591312
C        0.04350701       7.06644700      16.86929423       10      -0.00090780      -0.00034110      -0.05680138
C       -2.38156931       8.46636465      16.40674503       10       0.00068443       0.00089954      -0.00933968
C       -1.15427621       9.17385709      16.85955069       10      -0.00041355      -0.00001011      -0.14757730
C        4.89358139       0.06305902      16.90137291       10      -0.00025741       0.00014515       0.03882019
C        6.10920440       0.77024988      16.94919161       10       0.00005085       0.00061688       0.01553013
C        3.67976799       2.16427320      16.90162794       10      -0.00075108       0.00093361      -0.00707102
C        4.89307174       2.86640075      16.91623423       10      -0.00008241       0.00110794      -0.00081576
C        2.46796799       4.26712784      16.91355262       10      -0.00098279       0.00083382       0.00460901
C        3.68008433       4.96691107      16.90855185       10      -0.00157953       0.00081711       0.00288178
C        1.25270740       6.36812699      16.90162794       10      -0.00031612       0.00061462      -0.02256424
C        2.46715465       7.06770415      16.91623423       10      -0.00033552       0.00115984      -0.00197647
C        0.03931813       8.47059378      16.90137291       10       0.00011354       0.00000321       0.02106380
C        1.25992293       9.16906453      16.94919161       10       0.00040160       0.00157300       0.00475034
C        7.31771878       0.06983962      16.96448366       10       0.00178978       0.00203247       0.01504907
C        8.52982271       0.76978533      16.97142218       10       0.00161134       0.00226742       0.01642471
C        6.10424765       2.16832254      16.93814864       10       0.00064473       0.00057268      -0.00384182
C        7.31623888       2.86749596      16.95209393       10       0.00069020       0.00023308       0.00990602
C        4.89215774       4.26703472      16.91355262       10      -0.00167408       0.00148100      -0.01334853
C        6.10568350       4.96653367      16.91623423       10      -0.00182225       0.00105160       0.00030496
C        3.68011018       6.36643167      16.91355262       10      -0.00141680       0.00024133       0.00460399
C        4.89247391       7.06765533      16.91623423       10      -0.00132624      -0.00020688       0.00776309
C        2.46805257       8.46578809      16.93814864       10       0.00066388       0.00125330      -0.00242899
C        3.67949736       9.16607823      16.95209393       10       0.00046651       0.00115427      -0.00036753
C        9.73950306       0.06909247      16.96980436       10      -0.00075254      -0.00023947      -0.00054245
C       10.94888373       0.77000847      16.97142218       10       0.00259792       0.00065947      -0.02591973
C        8.52801811       2.16778694      16.96980436       10       0.00063532       0.00053165       0.00626317
C        9.73952111       2.86528781      16.97142218       10       0.00055586      -0.00135799       0.01231427
C        7.31582680       4.26668576      16.93814864       10      -0.00229671      -0.00020545      -0.00497395
C        8.52890041       4.96146430      16.94919161       10      -0.00027994      -0.00180307       0.01985686
C        6.10716684       6.36831079      16.90162794       10      -0.00142037       0.00068506      -0.00698009
C        7.31606078       7.06649908      16.86929423       10      -0.00015937      -0.00060687      -0.01268039
C        4.89114991       8.46607474      16.93814864       10      -0.00091498      -0.00082383       0.00407066
C        6.09894028       9.16939239      16.94919161       10       0.00248170       0.00133826      -0.01755810
O       -2.40102065       8.47274723      15.08268613       11      -0.00092228       0.00208241      -0.00148400
