130
Lattice="12.12 0.0 0.0 -6.06 10.496227893867395 0.0 0.0 0.0 40.0" Properties=species:S:1:pos:R:3:tags:I:1:forces:R:3 energy=-1201.514329925532 stress="0.0028870566833366284 7.185576117936126e-09 3.3924107412041827e-07 7.185576117936126e-09 0.0028869933709270213 5.000759256889856e-07 3.3924107412041827e-07 5.000759256889856e-07 0.002271180441768361" pbc="T T F"
C        0.00004177       0.00003486      10.00252826        2       0.00002321       0.00004871       0.00318454
Ti       0.00010773       1.74923665      11.29333335        0       0.00010581       0.00037849       0.00139480
Ti       1.51498681       0.87467836       8.71202443        0       0.00008757       0.00008415       0.00353342
O       -0.00000286       1.74939640       7.77266106        1       0.00001255       0.00011835       0.00358475
O        1.51527573       0.87474911      12.23008024        3      -0.00014763      -0.00001582       0.10311768
C       -1.51492333       2.62406709      10.00262252        2       0.00001075      -0.00001681       0.00332481
Ti      -1.51481726       4.37337704      11.29382788        0       0.00018096       0.00018332       0.00168351
Ti       0.00001987       3.49873332       8.71213234        0       0.00005758       0.00012718       0.00360667
O       -1.51508743       4.37342963       7.77281737        1      -0.00005385       0.00004600       0.00395804
O        0.00020054       3.49861354      12.23008024        3      -0.00005754      -0.00003503       0.09797397
C       -3.03007297       5.24807945      10.00287670        2       0.00009438       0.00010800       0.00348928
Ti      -3.02990980       6.99767753      11.29389046        0       0.00015906       0.00000192       0.00169629
Ti      -1.51495392       6.12282444       8.71221360        0       0.00005285       0.00002054       0.00378813
O       -3.03005747       6.99740913       7.77282928        1      -0.00005207      -0.00005546       0.00399684
O       -1.51496226       6.12273864      12.23008024        3       0.00002384       0.00013391       0.09788628
C       -4.54495827       7.87220823      10.00265301        2       0.00000510       0.00014348       0.00347154
Ti      -4.54507526       9.62173260      11.29340575        0       0.00012525       0.00017973       0.00136673
Ti      -3.02999201       8.74688810       8.71214374        0       0.00007326      -0.00002482       0.00375021
O       -4.54498880       9.62151455       7.77268128        1       0.00005603      -0.00003380       0.00359398
O       -3.03001656       8.74721779      12.23008024        3      -0.00005321       0.00013653       0.10014020
C        3.03004277       0.00002463      10.00253328        2      -0.00007646      -0.00000850       0.00320946
Ti       3.02989543       1.74932834      11.29361982        0       0.00011923       0.00032239       0.00168339
Ti       4.54497380       0.87464195       8.71223288        0       0.00004977       0.00007399       0.00367558
O        3.03008791       1.74943250       7.77275227        1       0.00013659       0.00013025       0.00380048
O        4.54475492       0.87452355      12.23008024        3      -0.00005050      -0.00004342       0.09943626
C        1.51501508       2.62407688      10.00255847        2      -0.00005725      -0.00005379       0.00311323
Ti       1.51493377       4.37335632      11.29371945        0       0.00017466       0.00023361       0.00195115
Ti       3.02995188       3.49873481       8.71223628        0       0.00005409       0.00010404       0.00366978
O        1.51506278       4.37343102       7.77276043        1       0.00009504       0.00007724       0.00392607
O        3.02954506       3.49867202      12.23008024        3      -0.00001884      -0.00007209       0.09782427
C        0.00002928       5.24822873      10.00260166        2      -0.00002148       0.00002192       0.00318600
Ti       0.00004328       6.99754915      11.29343022        0       0.00020699       0.00006707       0.00180519
Ti       1.51497830       6.12281857       8.71214437        0       0.00007098       0.00001053       0.00364970
O       -0.00001603       6.99746955       7.77269248        1       0.00003642      -0.00000634       0.00391941
O        1.51517651       6.12256225      12.23008024        3      -0.00000681       0.00021539       0.10176698
C       -1.51490381       7.87215769      10.00262236        2      -0.00006490       0.00013551       0.00323721
Ti      -1.51508414       9.62155232      11.29371813        0       0.00016930       0.00016079       0.00159904
Ti       0.00000699       8.74684176       8.71211201        0       0.00005145       0.00002057       0.00361923
O       -1.51498083       9.62158093       7.77275091        1       0.00004465       0.00006318       0.00379897
O       -0.00010968       8.74732790      12.23008024        3       0.00006215       0.00014752       0.10476336
C        6.06003271       0.00000050      10.00263648        2       0.00004903       0.00004481       0.00332359
Ti       6.06002911       1.74924312      11.29378897        0      -0.00011042       0.00007762       0.00180057
Ti       7.57503877       0.87462155       8.71227175        0       0.00001649       0.00007271       0.00381509
O        6.06004938       1.74949914       7.77284239        1       0.00003120       0.00012335       0.00407045
O        7.57541586       0.87434416      12.23008024        3       0.00013368       0.00006656       0.09783649
C        4.54499295       2.62408842      10.00282258        2       0.00004888      -0.00005955       0.00335848
Ti       4.54498677       4.37344262      11.29372195        0      -0.00013047       0.00000200       0.00215575
Ti       6.05998363       3.49871017       8.71219772        0      -0.00000062       0.00005047       0.00398448
O        4.54513467       4.37343255       7.77284736        1       0.00010081       0.00004316       0.00421497
O        6.05939702       3.49787399      12.23008024        3       0.00026779       0.00002877       0.09231402
C        3.03005338       5.24813132      10.00272539        2       0.00003141       0.00008821       0.00326029
Ti       3.02994346       6.99766566      11.29383051        0      -0.00003926      -0.00010934       0.00186756
Ti       4.54495277       6.12286362       8.71229929        0       0.00001605      -0.00003468       0.00392568
O        3.03007378       6.99744208       7.77278918        1       0.00008913      -0.00002015       0.00401111
O        4.54473252       6.12349007      12.23008024        3       0.00014393       0.00017528       0.09671675
C        1.51495579       7.87215893      10.00263642        2       0.00008963       0.00020460       0.00315052
Ti       1.51510743       9.62147600      11.29375480        0      -0.00003012       0.00003583       0.00161109
Ti       3.03002353       8.74688287       8.71215242        0       0.00000505      -0.00002872       0.00367323
O        1.51500600       9.62160330       7.77276698        1       0.00004139       0.00006444       0.00384278
O        3.03021439       8.74711683      12.23008024        3       0.00017439       0.00027664       0.09835447
C        9.09000069       0.00001185      10.00257060        2       0.00016268       0.00009914       0.00335296
Ti       9.09023429       1.74930248      11.29367904        0      -0.00003251       0.00013377       0.00162347
Ti      10.60504890       0.87467623       8.71206365        0       0.00000751       0.00008447       0.00366374
O        9.08991655       1.74946551       7.77282264        1      -0.00001800       0.00013408       0.00388575
O       10.60506691       0.87462305      12.23008024        3       0.00011529       0.00005267       0.09966266
C        7.57502500       2.62412649      10.00301172        2       0.00012869      -0.00003986       0.00347458
Ti       7.57493214       4.37336623      11.29369988        0      -0.00001434       0.00000615       0.00188012
Ti       9.09007281       3.49874413       8.71229362        0       0.00000409       0.00007739       0.00395206
O        7.57493610       4.37341428       7.77288076        1      -0.00002367       0.00004875       0.00425168
O        9.09079105       3.49864647      12.23008024        3       0.00012969       0.00000391       0.09695468
C        6.06003962       5.24806757      10.00314512        2       0.00010346       0.00015598       0.00350770
Ti       6.06003824       6.99773489      11.29371311        0      -0.00012143      -0.00007965       0.00172569
Ti       7.57505501       6.12285687       8.71231242        0       0.00001266      -0.00002338       0.00409183
O        6.06003137       6.99734363       7.77285564        1       0.00006523      -0.00009140       0.00406416
O        7.57535296       6.12357951      12.23008024        3       0.00009006       0.00017491       0.09776717
C        4.54500145       7.87218193      10.00262039        2       0.00015514       0.00022913       0.00339479
Ti       4.54520093       9.62170947      11.29348891        0      -0.00008784       0.00004394       0.00129425
Ti       6.06001332       8.74690773       8.71209614        0       0.00004435      -0.00005392       0.00372636
O        4.54501479       9.62153416       7.77269870        1       0.00003916       0.00000827       0.00364340
O        6.05998466       8.74713954      12.23008024        3       0.00013935       0.00025707       0.09641964
C        0.04513778       0.06748893      16.87744866       10      -0.00146318       0.00007308      -0.03729759
C        1.25709419       0.76725165      16.87744866       10      -0.00672846      -0.00222377      -0.04103445
C       -1.16712358       2.16666730      16.87744866       10       0.00179910       0.00243467      -0.02870182
C        0.04485188       2.86657288      16.87744866       10       0.00161650      -0.00195820      -0.04613050
C       -2.37894360       4.26590494      16.87744866       10      -0.00149227       0.00083010      -0.03808610
C       -1.16701441       4.96577562      16.87744866       10       0.00025434      -0.00076849      -0.03232679
C       -3.59082393       6.36528052      16.87744866       10      -0.00393020       0.00272083      -0.03706652
C       -2.37884213       7.06499812      16.87744866       10      -0.00122411      -0.00227393      -0.03050519
C       -4.80318344       8.46454808      16.87744866       10       0.00318472       0.00115363      -0.02916169
C       -3.59108771       9.16430411      16.87744866       10       0.00006001      -0.00034385      -0.04135790
C        2.46903285       0.06759394      16.87744866       10      -0.00041896      -0.00065177      -0.02987190
C        3.68113713       0.76718722      16.87744866       10      -0.00538203      -0.00029625      -0.04215481
C        1.25679762       2.16664714      16.87744866       10       0.00412907       0.00141890      -0.02998840
C        2.46878604       2.86642823      16.87744866       10      -0.00144688       0.00014687      -0.03930897
C        0.04503501       4.26605945      16.87744866       10      -0.00132231      -0.00015164      -0.03438085
C        1.25707306       4.96579696      16.87744866       10      -0.00252029       0.00250736      -0.03244214
C       -1.16680260       6.36524014      16.87744866       10      -0.00303250       0.00160118      -0.04657013
C        0.04511623       7.06490060      16.87744866       10      -0.00127896       0.00090901      -0.03709095
C       -2.37909745       8.46450670      16.87744866       10       0.00242863       0.00100283      -0.03869704
C       -1.16701747       9.16411175      16.87744866       10       0.00165683       0.00294399      -0.03157047
C        4.89305843       0.06742102      16.87744866       10      -0.00251137      -0.00142646      -0.04244644
C        6.10498577       0.76735580      16.87744866       10       0.00002931      -0.00129668      -0.02982933
C        3.68077192       2.16669826      16.87744866       10       0.00326349       0.00006378      -0.03132310
C        4.89272595       2.86655487      16.87744866       10       0.00350706       0.00009801      -0.02998378
C        2.46887037       4.26592970      16.87744866       10       0.00086091      -0.00286888      -0.04072397
C        3.68091234       4.96573415      16.87744866       10      -0.00104372       0.00261345      -0.02880660
C        1.25709897       6.36530701      16.87744866       10      -0.00360556      -0.00037787      -0.04197204
C        2.46904232       7.06509834      16.87744866       10      -0.00347481      -0.00031129      -0.03019441
C        0.04492320       8.46430435      16.87744866       10      -0.00012447       0.00105384      -0.03996725
C        1.25675873       9.16425258      16.87744866       10       0.00236270       0.00123134      -0.03140399
C        7.31702422       0.06753531      16.87744866       10      -0.00172331      -0.00314729      -0.03940323
C        8.52904970       0.76723493      16.87744866       10      -0.00259123      -0.00124394      -0.04006007
C        6.10471556       2.16685220      16.87744866       10       0.00111815      -0.00107207      -0.03297217
C        7.31669511       2.86654090      16.87744866       10       0.00284937      -0.00186052      -0.03156033
C        4.89283386       4.26601523      16.87744866       10       0.00231261      -0.00269031      -0.03411186
C        6.10487922       4.96568449      16.87744866       10       0.00118917      -0.00001412      -0.03174389
C        3.68095199       6.36534485      16.87744866       10       0.00132509      -0.00041756      -0.03680513
C        4.89302522       7.06503868      16.87744866       10      -0.00428898      -0.00159022      -0.03761150
C        2.46881461       8.46463193      16.87744866       10       0.00528179      -0.00002478      -0.04458821
C        3.68088192       9.16433937      16.87744866       10       0.00022773       0.00043144      -0.03618392
C        9.74115538       0.06763220      16.87744866       10      -0.00014492       0.00011240      -0.03107217
C       10.95321650       0.76725410      16.87744866       10      -0.00330615      -0.00138177      -0.04327986
C        8.52879786       2.16672879      16.87744866       10       0.00114142       0.00207848      -0.03055241
C        9.74084541       2.86645915      16.87744866       10       0.00375508      -0.00295147      -0.03561980
C        7.31687298       4.26596309      16.87744866       10      -0.00039111       0.00059551      -0.03419760
C        8.52893074       4.96570081      16.87744866       10       0.00134936      -0.00103482      -0.02779003
C        6.10508788       6.36524631      16.87744866       10      -0.00175998       0.00181421      -0.03012289
C        7.31714141       7.06506614      16.87744866       10      -0.00189510      -0.00258044      -0.03580683
C        4.89285442       8.46451356      16.87744866       10       0.00656480       0.00199522      -0.03137456
C        6.10485430       9.16429144      16.87744866       10       0.00132711      -0.00032355      -0.04654897
