132
Lattice="12.12 0.0 0.0 -6.06 10.496227893867395 0.0 0.0 0.0 40.0" Properties=species:S:1:pos:R:3:tags:I:1:forces:R:3 energy=-1209.8688413503298 stress="0.0027813957690173805 6.905024753964553e-06 -6.182432470441761e-06 6.905024753964553e-06 0.0027839640536170547 -3.58106113215664e-06 -6.182432470441761e-06 -3.58106113215664e-06 0.0027541657220918024" pbc="T T F"
C       -0.13132369       0.09950816       9.99451146        2      -0.00157355       0.00000917       0.00014413
Ti      -0.14406865       1.85530387      11.32495599        0       0.00187586      -0.00261299      -0.00247134
Ti       1.38253076       0.97875885       8.70449905        0      -0.00218694      -0.00082073       0.00360209
O       -0.13337659       1.85370081       7.78364718        1      -0.00362188       0.00104275       0.00070849
O        1.38269006       0.97721700      12.23159545        3       0.00018005       0.00004533       0.00981645
C       -1.64591434       2.72562551      10.01077240        2      -0.00120284      -0.00107744       0.00005261
Ti      -1.63988720       4.46952221      11.30210072        0      -0.00671984      -0.00269924      -0.00041991
Ti      -0.13164687       3.60098287       8.70879369        0      -0.00041501       0.00038758       0.00268207
O       -1.64787147       4.47441528       7.78143888        1      -0.00216739       0.00146040       0.00108107
O       -0.13028022       3.60899764      12.23159545        3      -0.00031613      -0.00270773      -0.12367502
C       -3.16467779       5.35609400       9.99018459        2      -0.00131762       0.00013600      -0.00252948
Ti      -3.16492731       7.09783243      11.31571335        0       0.00155597      -0.00056644      -0.00231196
Ti      -1.64968571       6.22856142       8.70120690        0       0.00305216       0.00290458       0.00183766
O       -3.16259255       7.10310245       7.77619789        1      -0.00059407      -0.00233866      -0.00092606
O       -1.65074001       6.22150598      12.23159545        3       0.00297124      -0.00053332       0.00893016
C       -4.67770757       7.97568194       9.99312226        2       0.00070668      -0.00093259      -0.00150307
Ti      -4.68176184       9.72622330      11.31543383        0      -0.00074819      -0.00098794      -0.00251569
Ti      -3.16219310       8.85172688       8.70280063        0      -0.00073479       0.00182097       0.00461366
O       -4.67719659       9.72651665       7.77844206        1      -0.00212541      -0.00141948      -0.00183704
O       -3.16435979       8.85093663      12.23159545        3      -0.00024677      -0.00201722      -0.04053640
C        2.89664639       0.10382494       9.99514437        2       0.00113175      -0.00285242       0.00061585
Ti       2.89396494       1.85191583      11.32024929        0      -0.00122854       0.00460037      -0.00218214
Ti       4.41117018       0.97872186       8.70339407        0      -0.00192730      -0.00170332       0.00377350
O        2.89639506       1.85383795       7.78055698        1      -0.00017514       0.00058968      -0.00310146
O        4.41479724       0.98042596      12.23159545        3      -0.00085992       0.00045446      -0.02112316
C        1.38286048       2.72707783       9.99785881        2      -0.00000564      -0.00077069       0.00051577
Ti       1.38653506       4.47536665      11.31075210        0       0.00169619       0.00246627      -0.00168117
Ti       2.89582307       3.60320196       8.70331215        0       0.00062741      -0.00391441       0.00420322
O        1.38008528       4.47789182       7.78153538        1      -0.00337444      -0.00493906      -0.00120293
O        2.90068140       3.60049944      12.23159545        3      -0.00100446       0.00188825      -0.00181591
C       -0.13295510       5.35411651       9.99710736        2      -0.00034079      -0.00104474      -0.00150826
Ti      -0.13727844       7.10008010      11.32127142        0      -0.00439782       0.00023041      -0.00159882
Ti       1.38027612       6.22753198       8.70437886        0       0.00082416      -0.00274934       0.00585522
O       -0.13322520       7.10229886       7.77985347        1      -0.00018586      -0.00322645      -0.00199695
O        1.38081748       6.22597548      12.23159545        3      -0.00124905      -0.00154917      -0.02011493
C       -1.64929868       7.97632981       9.99524760        2      -0.00151305       0.00033590      -0.00004136
Ti      -1.64853463       9.72579030      11.31441151        0      -0.00018201       0.00002382      -0.00351788
Ti      -0.13425792       8.85169040       8.70363867        0       0.00189243      -0.00230630       0.00586718
O       -1.64785795       9.72616354       7.77806402        1       0.00288687      -0.00091594      -0.00016044
O       -0.13152689       8.85203440      12.23159545        3      -0.00345328       0.00256068      -0.01012198
C        5.92732534       0.10417215       9.99574530        2      -0.00149323      -0.00026871      -0.00171551
Ti       5.92991233       1.85647714      11.31662712        0       0.00126319      -0.00368684      -0.00133788
Ti       7.43811391       0.97911454       8.70369347        0      -0.00072785      -0.00461617       0.00117504
O        5.92542360       1.85281948       7.77807341        1       0.00112903      -0.00103846      -0.00146747
O        7.44549088       0.98190985      12.23159545        3       0.00023682       0.00003554      -0.01089940
C        4.41020809       2.72866014       9.99408465        2       0.00020645      -0.00156174      -0.00236284
Ti       4.41433912       4.47376257      11.31504865        0      -0.00132739       0.00048544      -0.00419576
Ti       5.92364610       3.60104687       8.70467680        0      -0.00137752      -0.00147391       0.00384804
O        4.41012684       4.47666579       7.77617470        1      -0.00066910      -0.00239833      -0.00194409
O        5.92904511       3.60238318      12.23159545        3       0.00177511      -0.00075117      -0.00889259
C        2.89845522       5.35367422       9.99591049        2      -0.00113443      -0.00194130       0.00012436
Ti       2.89649836       7.10094071      11.31816086        0       0.00291124      -0.00160522      -0.00363003
Ti       4.41043421       6.22783425       8.69421652        0       0.00059435      -0.00231999       0.00450143
O        2.89324612       7.10325807       7.77757558        1       0.00166157      -0.00433369      -0.00352729
O        4.41440681       6.22419969      12.23159545        3      -0.00015583      -0.00028553      -0.03262530
C        1.38115342       7.97460133       9.99702925        2      -0.00050324      -0.00093377      -0.00063702
Ti       1.38329948       9.72443192      11.31765253        0      -0.00375957       0.00081934      -0.00094790
Ti       2.89570225       8.85220340       8.70305821        0       0.00135081      -0.00184973       0.00341247
O        1.38109592       9.72542304       7.77983852        1       0.00169480      -0.00044271      -0.00129203
O        2.89623151       8.84962008      12.23159545        3       0.00092081      -0.00041101      -0.01693687
C        8.95671336       0.09960361       9.99656671        2       0.00126432      -0.00010461      -0.00016656
Ti       8.97846176       1.84076533      11.32360584        0      -0.00499471       0.00584567      -0.00133032
Ti      10.47541778       0.97535956       8.70862339        0      -0.00086004      -0.00161917       0.00204585
O        8.95914697       1.85371823       7.78576733        1      -0.00172490       0.00041017       0.00374461
O       10.47401373       0.95513568      12.23159545        3       0.00125884      -0.00030317      -0.30677535
C        7.43977643       2.72683138       9.99313924        2      -0.00090141      -0.00030117      -0.00580466
Ti       7.43306412       4.48163169      11.29124882        0       0.00026579      -0.00274044       0.00039292
Ti       8.95238362       3.60554661       8.69031995        0      -0.00061270       0.00184710       0.00120156
O        7.44154602       4.47650285       7.77651184        1      -0.00013893       0.00068748      -0.00019388
O        8.93788723       3.61330254      12.23159545        3       0.00274359       0.00071247      -0.07411586
C        5.91924605       5.35720787       9.99153179        2      -0.00095467       0.00017507      -0.00381849
Ti       5.93093208       7.10001664      11.31325813        0      -0.00128892      -0.00000181      -0.00375826
Ti       7.44215257       6.22987832       8.70046910        0      -0.00078534       0.00235558       0.00499696
O        5.92642752       7.10212349       7.77406531        1      -0.00281469      -0.00026743      -0.00257868
O        7.44204117       6.22210476      12.23159545        3      -0.00348900      -0.00013599      -0.00471073
C        4.41288371       7.97060450       9.99315160        2      -0.00070066      -0.00027741      -0.00113390
Ti       4.41585229       9.71448012      11.30200066        0      -0.00075705      -0.00409109       0.00019034
Ti       5.92810998       8.85140013       8.69962497        0      -0.00040539      -0.00136163       0.00385415
O        4.41115671       9.72560688       7.77870890        1      -0.00158562      -0.00082251      -0.00136921
O        5.92864961       8.84767022      12.23159545        3      -0.00307525       0.00078439      -0.00776592
C        0.27266525      -0.10726515      16.00040110       10       0.00888720       0.00386817       0.01727480
C        1.47892722       0.59654140      16.00878933       10       0.00045891      -0.00344997       0.01418103
C       -0.91663447       1.97880735      15.97603043       10       0.00413679      -0.00284217       0.71099057
C        0.27021999       2.69289619      15.98366917       10       0.00044076       0.00096594       0.09271741
C       -2.16229757       4.13294151      15.97602488       10       0.00274591      -0.00074649       0.33028209
C       -0.94882033       4.80328121      15.98366661       10      -0.00167734       0.00108515       0.07536417
C       -3.37358852       6.20883515      16.00040055       10      -0.00041767       0.00094899       0.01529102
C       -2.16033775       6.89972781      16.00878913       10      -0.00261274       0.00052946       0.02202001
C       -4.58401920       8.29647156      15.99850816       10       0.00591828       0.00417304       0.02442067
C       -3.37152018       8.99583516      16.00979782       10      -0.00355869      -0.00466097       0.01464983
C        2.69041365      -0.10321407      16.01082284       10       0.00345145       0.00055725       0.03318790
C        3.89998473       0.59769412      16.00979773       10       0.00199366      -0.00054246       0.01304107
C        1.48570081       1.99290077      16.00040131       10      -0.00026181      -0.00023836       0.01633820
C        2.69078483       2.69705032      15.99134118       10      -0.00099886      -0.00106647       0.01764126
C        0.26742271       4.09842665      15.95754129       10       0.00169040       0.00274442      -0.00454516
C        1.47487451       4.79654332      15.96921124       10       0.00275982       0.00187963       0.00010075
C       -0.94889811       6.20738686      16.00040055       10      -0.00142484       0.00203856       0.00518684
C        0.26409638       6.89905844      15.99134128       10      -0.00097089       0.00305608       0.03125611
C       -2.16025752       8.29926754      16.01082305       10       0.00080670       0.00124016       0.03213130
C       -0.94917663       8.99636727      16.00979782       10       0.00114051       0.00077473       0.01357931
C        5.10838075      -0.10294689      16.01082284       10      -0.00050988       0.00136979       0.02661990
C        6.32083735       0.59719465      16.00878933       10      -0.00153364      -0.00070387      -0.00398469
C        3.89951310       1.99661636      15.99850803       10      -0.00144910      -0.00087111       0.01929687
C        5.10852711       2.69784504      15.99134118       10      -0.00111916      -0.00041750       0.01299795
C        2.68821026       4.09582603      15.97745768       10       0.00259291      -0.00010065       0.01862777
C        3.89884876       4.79744105      15.97466982       10       0.00164106       0.00232314       0.01613744
C        1.47397060       6.19762540      15.97745758       10       0.00013992       0.00238409       0.01615319
C        2.68738023       6.89590549      15.97466971       10       0.00017697       0.00173844       0.01067679
C        0.26200457       8.29723920      15.99850816       10       0.00102014       0.00355746       0.01007820
C        1.47360207       8.99397759      15.99134103       10       0.00149429       0.00065409       0.02843897
C        7.52617680      -0.10471888      16.00040110       10      -0.00205581       0.00199742      -0.00104697
C        8.74173783       0.59760348      15.98366898       10      -0.00040715       0.00038902       0.06754547
C        6.31269378       1.99279031      16.00040131       10       0.00028890      -0.00006399      -0.01369507
C        7.52810464       2.69405272      15.98366917       10       0.00189150       0.00123235       0.04424236
C        5.11097232       4.09529321      15.97745768       10       0.00075170       0.00065899       0.01143286
C        6.32258575       4.79700434      15.96921124       10       0.00137574       0.00096695      -0.01690382
C        3.89932206       6.19632503      15.97159182       10       0.00101865       0.00274038      -0.00428812
C        5.11066379       6.89596499      15.97466971       10       0.00194014      -0.00060450       0.00631633
C        2.68562971       8.29641592      15.97745741       10       0.00012440       0.00098971       0.01182416
C        3.89891767       8.99659064      15.96921083       10       0.00120506      -0.00328292      -0.00915819
C        9.95885388      -0.10463143      15.95754124       10       0.00458994       0.00302154       0.00656377
C       11.17729764       0.59532001      15.98366898       10      -0.00528945      -0.00351334       0.05598579
C        8.71677934       1.98313402      15.97603043       10       0.00363028       0.00192727       0.35243875
C        9.95682829       2.70186869      15.73167117       10       0.00375320       0.00044911      -1.59078836
C        7.53038794       4.09979499      15.95754129       10       0.00282551       0.00226377      -0.06351907
C        8.74642402       4.80534803      15.98366661       10      -0.00179306       0.00323850       0.07646004
C        6.32382316       6.19790079      15.97745758       10       0.00251610       0.00142419       0.02918789
C        7.53344686       6.89859251      15.99134128       10      -0.00228922       0.00683852       0.02228012
C        5.11208241       8.29584588      15.97745741       10       0.00439093       0.00205779       0.03247239
C        6.32523657       8.99332321      15.99134103       10      -0.00768182      -0.00099847       0.02057024
O       10.04469913       2.63455316      14.23907768       11       0.00064980       0.00146030       0.00530066
H        9.38637705       3.20922940      13.77118024       12       0.00503125       0.00807425      -0.00233248
