130
Lattice="12.12 0.0 0.0 -6.06 10.496227893867395 0.0 0.0 0.0 40.0" Properties=species:S:1:pos:R:3:tags:I:1:forces:R:3 energy=-1199.5026880314563 stress="0.002651592071045995 6.823284555342456e-08 1.7716976137118495e-07 6.823284555342456e-08 0.0026516218269386086 5.002908028570909e-07 1.7716976137118495e-07 5.002908028570909e-07 0.003010532423000538" pbc="T T F"
C       -0.00001541      -0.00001479       9.99990869        2       0.00002560       0.00008407      -0.00355460
Ti      -0.00001129       1.75035306      11.28391209        0       0.00023067      -0.00024042      -0.00033958
Ti       1.51508103       0.87472518       8.70784030        0       0.00012831       0.00007020      -0.00297707
O       -0.00005856       1.74960617       7.76833154        1      -0.00007292      -0.00016527      -0.00234935
O        1.51252059       0.87328115      12.23008024        3       0.00018992       0.00015735      -0.31857587
C       -1.51492383       2.62396251      10.00115856        2       0.00042153      -0.00003197      -0.00256989
Ti      -1.51418217       4.37531022      11.28494538        0       0.00055315       0.00026120       0.00074464
Ti       0.00000016       3.49898605       8.70873593        0       0.00013808       0.00010517      -0.00257954
O       -1.51536562       4.37341856       7.76872316        1      -0.00074490      -0.00051172      -0.00139592
O        0.00051757       3.49839854      12.23008024        3       0.00010177       0.00041891      -0.32724840
C       -3.03025435       5.24799032      10.00191643        2       0.00015208       0.00009138      -0.00177798
Ti      -3.02811660       6.99771460      11.28439531        0       0.00062100       0.00054396       0.00099128
Ti      -1.51505996       6.12272716       8.70859743        0      -0.00008164      -0.00004697      -0.00301047
O       -3.03020481       6.99714074       7.76866779        1      -0.00093110      -0.00024328      -0.00145070
O       -1.51360832       6.12369713      12.23008024        3       0.00062439       0.00030761      -0.34292179
C       -4.54505561       7.87229454      10.00119627        2       0.00015213       0.00030202      -0.00268710
Ti      -4.54393008       9.62095895      11.28390344        0       0.00019535       0.00004658      -0.00003973
Ti      -3.02981730       8.74675357       8.70854667        0       0.00016994       0.00000534      -0.00237255
O       -4.54487808       9.62138609       7.76828643        1      -0.00014419      -0.00010295      -0.00229221
O       -3.02970045       8.74764909      12.23008024        3       0.00037883       0.00006592      -0.33151243
C        3.02991987       0.00013845      10.00072042        2      -0.00009760       0.00001363      -0.00296531
Ti       3.02984399       1.74918460      11.28600766        0      -0.00107645      -0.00068000       0.00139187
Ti       4.54502120       0.87471780       8.70952238        0      -0.00003436       0.00026468      -0.00112134
O        3.03048469       1.74970869       7.76877101        1       0.00026535       0.00015264      -0.00108482
O        4.54372404       0.87368167      12.23008024        3      -0.00024378      -0.00045261      -0.30867411
C        1.51501803       2.62391538      10.00084731        2      -0.00014967       0.00003113      -0.00260721
Ti       1.51477511       4.37548201      11.28507305        0      -0.00071130       0.00041799       0.00074866
Ti       3.03001003       3.49877393       8.70966659        0       0.00011412      -0.00003902      -0.00099042
O        1.51533073       4.37344477       7.76868601        1       0.00042114      -0.00064459      -0.00194100
O        3.02838496       3.49803174      12.23008024        3      -0.00071885       0.00043625      -0.30520101
C        0.00000842       5.24788723      10.00071251        2       0.00015212       0.00035856      -0.00318016
Ti       0.00041753       6.99811115      11.28142719        0      -0.00011779       0.00038015      -0.00118186
Ti       1.51501350       6.12271514       8.70849685        0       0.00016115      -0.00012115      -0.00358694
O        0.00001755       6.99744692       7.76826694        1      -0.00031541      -0.00004939      -0.00336476
O        1.51342630       6.12394514      12.23008024        3      -0.00000321       0.00028349      -0.34681464
C       -1.51521150       7.87231067      10.00062752        2       0.00049063       0.00003734      -0.00346633
Ti      -1.51343688       9.62051023      11.28430303        0      -0.00007126      -0.00041373       0.00085434
Ti      -0.00003589       8.74687000       8.70822706        0      -0.00000035       0.00020269      -0.00349310
O       -1.51483346       9.62180211       7.76851639        1      -0.00043978       0.00073831      -0.00205760
O        0.00015431       8.74482160      12.23008024        3       0.00024663       0.00012039      -0.35152818
C        6.06003253       0.00040036      10.00152160        2      -0.00004814      -0.00001461      -0.00250089
Ti       6.05987173       1.74872001      11.28554883        0       0.00010466      -0.00028291       0.00123297
Ti       7.57504321       0.87480594       8.70966536        0      -0.00005780       0.00036080      -0.00087343
O        6.06005038       1.74982643       7.76923460        1       0.00012618       0.00075577       0.00023764
O        7.57614921       0.87391840      12.23008024        3       0.00005356      -0.00060390      -0.30927693
C        4.54488651       2.62399994      10.00246124        2      -0.00033116       0.00003455      -0.00090847
Ti       4.54457044       4.37363330      11.28576686        0      -0.00024669       0.00029140       0.00109216
Ti       6.06003852       3.49873735       8.70991786        0      -0.00001023       0.00013439      -0.00011031
O        4.54538246       4.37328264       7.76933361        1       0.00068758      -0.00018725       0.00032170
O        6.06003238       3.49892204      12.23008024        3      -0.00049687      -0.00004436      -0.31281967
C        3.03034327       5.24796245      10.00171588        2      -0.00032246       0.00020990      -0.00204085
Ti       3.02848861       6.99772361      11.28365430        0      -0.00016102       0.00088228       0.00007538
Ti       4.54511900       6.12275691       8.70983223        0       0.00022216      -0.00016745      -0.00063915
O        3.03021495       6.99718066       7.76862930        1       0.00104152      -0.00019369      -0.00211890
O        4.54501548       6.12402666      12.23008024        3      -0.00079886       0.00058744      -0.30876611
C        1.51520596       7.87229769      10.00058377        2      -0.00010065       0.00000325      -0.00369303
Ti       1.51412799       9.62039297      11.28338677        0       0.00030510      -0.00013962       0.00049455
Ti       3.02982155       8.74675060       8.70836365        0      -0.00004955      -0.00005512      -0.00319860
O        1.51487737       9.62183768       7.76850470        1       0.00029845       0.00100436      -0.00215086
O        3.02978544       8.74708262      12.23008024        3      -0.00036321       0.00008485      -0.33681495
C        9.09008003       0.00015399      10.00088048        2       0.00019873      -0.00014065      -0.00296486
Ti       9.09007159       1.74914930      11.28735558        0       0.00090740      -0.00053329       0.00199874
Ti      10.60485175       0.87473368       8.70822626        0      -0.00006355       0.00004558      -0.00260715
O        9.08954593       1.74973530       7.76894231        1      -0.00018433       0.00046816      -0.00033249
O       10.60748305       0.87328850      12.23008024        3      -0.00011688       0.00009354      -0.31614132
C        7.57510389       2.62409336      10.00265592        2       0.00003430       0.00002388      -0.00075746
Ti       7.57506623       4.37359136      11.28615147        0       0.00032196       0.00024120       0.00154787
Ti       9.09000271       3.49875947       8.70995690        0      -0.00016403      -0.00001301      -0.00027296
O        7.57470474       4.37327655       7.76938966        1      -0.00026967      -0.00007120       0.00089526
O        9.09134332       3.49805156      12.23008024        3       0.00067780       0.00004290      -0.30445227
C        6.06006382       5.24817688      10.00274148        2      -0.00014107       0.00011033      -0.00055718
Ti       6.05990646       6.99785019      11.28763533        0       0.00009482       0.00117824       0.00245439
Ti       7.57498134       6.12276742       8.70994270        0      -0.00019229      -0.00004959      -0.00000239
O        6.06003581       6.99690350       7.76902524        1       0.00030318      -0.00035725      -0.00018790
O        7.57498930       6.12405768      12.23008024        3       0.00037081       0.00071271      -0.30753904
C        4.54514804       7.87221341      10.00104382        2      -0.00012641       0.00027240      -0.00267727
Ti       4.54350530       9.62070868      11.28371965        0       0.00014273       0.00020820      -0.00013507
Ti       6.05997340       8.74671609       8.70838428        0       0.00005141      -0.00013130      -0.00219296
O        4.54483925       9.62143620       7.76830172        1       0.00041693       0.00011765      -0.00223182
O        6.05999865       8.74967523      12.23008024        3      -0.00002261       0.00003820      -0.31539150
C        0.04496684       0.06762180      15.17218550       10       0.00782406       0.00471532       0.07885202
C        1.25681736       0.76718793      15.17218550       10      -0.00579714       0.00071647       0.15695742
C       -1.16670372       2.16632472      15.17218550       10      -0.00314652       0.00542058       0.08786323
C        0.04494446       2.86664164      15.17218550       10       0.00027311       0.00246044       0.14753041
C       -2.37897435       4.26580461      15.17218550       10      -0.00423753       0.00151115       0.09813958
C       -1.16675176       4.96611203      15.17218550       10       0.00051269       0.00058216       0.06553999
C       -3.59123880       6.36538428      15.17218550       10      -0.00451695       0.00383758       0.09981549
C       -2.37872316       7.06522981      15.17218550       10       0.00263224      -0.00310658       0.05941644
C       -4.80340504       8.46492373      15.17218550       10       0.00636543       0.00294839       0.09076424
C       -3.59094500       9.16421640      15.17218550       10      -0.00404476      -0.00031549       0.13782885
C        2.46842636       0.06758075      15.17218550       10      -0.00049521      -0.00415185       0.09349830
C        3.68076752       0.76675421      15.17218550       10       0.00507254       0.00472202       0.13122935
C        1.25666436       2.16638962      15.17218550       10       0.00133970      -0.00065705       0.08862904
C        2.46856366       2.86649204      15.17218550       10       0.00222209       0.00025517       0.13887732
C        0.04490276       4.26564141      15.17218550       10       0.00276980      -0.00107669       0.15151858
C        1.25666387       4.96609760      15.17218550       10      -0.00031394      -0.00227637       0.06333017
C       -1.16721045       6.36525773      15.17218550       10       0.00484722       0.00185809       0.16481218
C        0.04489615       7.06511063      15.17218550       10       0.00048917      -0.00246282       0.01704072
C       -2.37947219       8.46472224      15.17218550       10       0.00113288      -0.00114225       0.15597806
C       -1.16696646       9.16377087      15.17218550       10       0.00158749       0.00593046       0.05534959
C        4.89275370       0.06760469      15.17218550       10      -0.00160297      -0.00621240       0.11842962
C        6.10504854       0.76670404      15.17218550       10       0.00122510       0.00289931       0.08603838
C        3.68081869       2.16658885      15.17218550       10      -0.00303665       0.00054201       0.06281313
C        4.89309799       2.86637094      15.17218550       10      -0.00035764      -0.00090824       0.10978129
C        2.46897256       4.26576647      15.17218550       10      -0.00116983       0.00030142       0.10643563
C        3.68074188       4.96591737      15.17218550       10       0.00116315      -0.00056861       0.09293649
C        1.25682509       6.36525272      15.17218550       10       0.00038696       0.00028295       0.16281856
C        2.46846772       7.06512412      15.17218550       10       0.00281983      -0.00060891       0.04875679
C        0.04493812       8.46444435      15.17218550       10      -0.00142237      -0.00332590       0.15957746
C        1.25689484       9.16369783      15.17218550       10       0.00126043       0.00625028       0.04651798
C        7.31727045       0.06754527      15.17218550       10      -0.00155693      -0.00593895       0.12157290
C        8.52916451       0.76675962      15.17218550       10      -0.00169172       0.00080756       0.11816217
C        6.10511166       2.16671902      15.17218550       10      -0.00057329       0.00231175       0.06418478
C        7.31711194       2.86646750      15.17218550       10      -0.00490536      -0.00238847       0.10598542
C        4.89312805       4.26582757      15.17218550       10       0.00019205       0.00203034       0.06013663
C        6.10505077       4.96562252      15.17218550       10      -0.00265087       0.00070895       0.10557504
C        3.68115179       6.36535818      15.17218550       10      -0.00211699      -0.00047388       0.11159225
C        4.89271197       7.06526087      15.17218550       10      -0.00144955       0.00034718       0.11893700
C        2.46935547       8.46465232      15.17218550       10      -0.00489451      -0.00502467       0.16376902
C        3.68081973       9.16408579      15.17218550       10      -0.00019192       0.00380072       0.12321452
C        9.74147660       0.06751718      15.17218550       10       0.00457722       0.00001926       0.09886603
C       10.95323408       0.76714890      15.17218550       10      -0.00684000      -0.00311597       0.15800119
C        8.52929540       2.16663158      15.17218550       10      -0.00265735       0.00264969       0.06132765
C        9.74134525       2.86651830      15.17218550       10       0.00424249      -0.00410971       0.13633980
C        7.31693444       4.26591235      15.17218550       10      -0.00079749      -0.00092187       0.05718936
C        8.52916425       4.96595874      15.17218550       10       0.00421765      -0.00202174       0.09820291
C        6.10499169       6.36537643      15.17218550       10      -0.00039143      -0.00236406       0.05815709
C        7.31703078       7.06538779      15.17218550       10       0.00331336      -0.00591210       0.12798942
C        4.89319710       8.46488068      15.17218550       10       0.00615350      -0.00066224       0.09730569
C        6.10495148       9.16462932      15.17218550       10      -0.00783242      -0.00523306       0.15860314
