132
Lattice="12.12 0.0 0.0 -6.06 10.496227893867395 0.0 0.0 0.0 40.0" Properties=species:S:1:pos:R:3:tags:I:1:forces:R:3 energy=-1209.8640555288657 stress="0.0028108548201319023 6.457364214955464e-07 -1.4678952335315516e-06 6.457364214955464e-07 0.002811794718934094 -1.2876039438264612e-06 -1.4678952335315516e-06 -1.2876039438264612e-06 0.002159173363738131" pbc="T T F"
C        0.00084517      -0.00328908      10.00318557        2       0.00097273       0.00060622       0.00224489
Ti      -0.00435493       1.74940692      11.32006580        0       0.00130048      -0.00073006      -0.00089804
Ti       1.51483888       0.87212913       8.69551311        0      -0.00044605      -0.00026512      -0.00044204
O       -0.00167807       1.74796757       7.77631005        1      -0.00038379      -0.00054958       0.00176972
O        1.51236314       0.87277737      12.23159545        3      -0.00091096      -0.00025058       0.06978092
C       -1.51475002       2.62144353      10.01497885        2      -0.00091814       0.00001067       0.00295486
Ti      -1.51585932       4.36693699      11.30511513        0       0.00064221      -0.00044224       0.00054071
Ti       0.00330024       3.49837268       8.69348787        0      -0.00006030      -0.00093071      -0.00204003
O       -1.51514456       4.36834652       7.77400409        1      -0.00036302      -0.00137441       0.00134862
O        0.00475247       3.49945606      12.23159545        3      -0.00134301       0.00034701       0.01823807
C       -3.02952371       5.24500502      10.00523196        2       0.00106316      -0.00067702       0.00252371
Ti      -3.02917066       6.99330328      11.30587343        0      -0.00048230      -0.00230875       0.00003235
Ti      -1.51309830       6.11996444       8.69177038        0      -0.00027574      -0.00028855      -0.00116972
O       -3.02934746       6.99332922       7.77100269        1      -0.00059435      -0.00031392       0.00259808
O       -1.51220752       6.11738109      12.23159545        3      -0.00090276      -0.00086339       0.07487969
C       -4.54389600       7.86906446      10.00231235        2      -0.00024286      -0.00158487       0.00189254
Ti      -4.54442167       9.61979737      11.30641780        0       0.00042283      -0.00127887      -0.00070603
Ti      -3.02962038       8.74369587       8.69135493        0      -0.00034504      -0.00004802      -0.00149395
O       -4.54420504       9.61994028       7.77105560        1      -0.00031284      -0.00091701       0.00276896
O       -3.02944835       8.74329020      12.23159545        3       0.00054989      -0.00152215       0.07019921
C        3.03080706      -0.00281105      10.00390200        2       0.00015222      -0.00071911       0.00207026
Ti       3.03001125       1.74688772      11.30695050        0       0.00025357      -0.00026876      -0.00059037
Ti       4.54550011       0.87176782       8.69186180        0      -0.00034568      -0.00013829      -0.00218993
O        3.02999677       1.74574945       7.77127496        1       0.00041419       0.00095384       0.00225215
O        4.54531539       0.87060283      12.23159545        3       0.00130165      -0.00053097       0.07391524
C        1.51638247       2.62192400      10.00314281        2      -0.00084799      -0.00141696       0.00236439
Ti       1.51728461       4.37258421      11.30674210        0       0.00076072       0.00047828       0.00068010
Ti       3.02981789       3.49452534       8.69375338        0       0.00047692       0.00051102      -0.00082464
O        1.51499456       4.36977732       7.77005012        1      -0.00070284      -0.00064746       0.00154320
O        3.02976386       3.49658457      12.23159545        3       0.00001720      -0.00044968       0.07369338
C        0.00355673       5.24732254       9.99967825        2      -0.00165952      -0.00087739       0.00330535
Ti      -0.00180635       6.99279941      11.30799906        0      -0.00041490      -0.00040523      -0.00073289
Ti       1.51542404       6.12083138       8.69161285        0       0.00074755       0.00068507      -0.00077327
O       -0.00025178       6.99467618       7.76948341        1      -0.00009215      -0.00099686       0.00117598
O        1.51401251       6.12258942      12.23159545        3       0.00026773      -0.00085583       0.05349084
C       -1.51506370       7.86903869      10.00183894        2      -0.00005218      -0.00041820       0.00097353
Ti      -1.51518079       9.61884600      11.30706386        0       0.00051761      -0.00097808       0.00034607
Ti       0.00032796       8.74408836       8.69260910        0      -0.00082944       0.00017450      -0.00269367
O       -1.51491859       9.61915649       7.77043595        1      -0.00102752       0.00036822       0.00015872
O        0.00027945       8.74177766      12.23159545        3      -0.00061441       0.00064651       0.06020416
C        6.06013133      -0.00349730      10.00245202        2      -0.00043992      -0.00029899       0.00029721
Ti       6.06241687       1.74699200      11.30662709        0      -0.00058424       0.00026285       0.00015889
Ti       7.57637162       0.87047282       8.69230991        0       0.00002683       0.00027143      -0.00242606
O        6.06181551       1.74692309       7.77230156        1       0.00037752       0.00009120       0.00142823
O        7.57771991       0.86898940      12.23159545        3      -0.00069010       0.00064964       0.05210432
C        4.54589364       2.62105643      10.00336337        2       0.00127754       0.00014063       0.00144006
Ti       4.54736088       4.37043458      11.30790864        0       0.00003252      -0.00047152      -0.00022717
Ti       6.05888587       3.49692111       8.69220680        0      -0.00020851      -0.00034417      -0.00356764
O        4.54499618       4.36985845       7.77003466        1       0.00130941      -0.00080688       0.00060657
O        6.06177339       3.49741068      12.23159545        3       0.00149053       0.00044318       0.09276309
C        3.03068334       5.24583611      10.00255887        2       0.00043656      -0.00005359       0.00092069
Ti       3.03010685       6.99449202      11.30624730        0      -0.00008488      -0.00011819      -0.00210752
Ti       4.54470985       6.12065857       8.68919546        0      -0.00039973       0.00030264      -0.00003589
O        3.03024640       6.99482833       7.76784763        1      -0.00072716       0.00164519       0.00125639
O        4.54507747       6.12169433      12.23159545        3      -0.00013341      -0.00023849       0.06327060
C        1.51514560       7.86942581      10.00094126        2      -0.00023849       0.00046309       0.00105748
Ti       1.51435535       9.61981084      11.30873881        0      -0.00005762       0.00007960       0.00003163
Ti       3.03005807       8.74312860       8.69172423        0      -0.00043107      -0.00099466      -0.00123300
O        1.51537270       9.61944607       7.77012004        1       0.00041735       0.00111767       0.00163773
O        3.02870312       8.74215025      12.23159545        3       0.00060130       0.00072057       0.05537917
C        9.09034514      -0.00630612      10.00118508        2      -0.00049511       0.00221963       0.00451540
Ti       9.09274583       1.74517732      11.30053833        0      -0.00070214      -0.00084206       0.00118430
Ti      10.60513834       0.86906659       8.69356475        0       0.00081536       0.00021849      -0.00180826
O        9.09177563       1.74799318       7.77395835        1       0.00054560       0.00012339       0.00083869
O       10.60710373       0.86564714      12.23159545        3      -0.00178077       0.00012658       0.00246612
C        7.57531463       2.62102904      10.00632392        2       0.00067129      -0.00101859       0.00273358
Ti       7.57633342       4.37087246      11.29633641        0      -0.00242543       0.00045890      -0.00047453
Ti       9.08930358       3.49666694       8.69507631        0       0.00148648      -0.00115166      -0.00424539
O        7.57640037       4.36962263       7.77177643        1       0.00120602      -0.00113315       0.00197823
O        9.08614082       3.49763696      12.23159545        3      -0.00220359       0.00067364       0.07037983
C        6.05668174       5.24778249       9.99974922        2       0.00108941      -0.00100579       0.00145679
Ti       6.06200948       6.99388241      11.30759860        0       0.00034783      -0.00018576      -0.00071003
Ti       7.57393067       6.12073792       8.69143207        0       0.00044768       0.00036516      -0.00210529
O        6.06074415       6.99563177       7.76977188        1       0.00124834      -0.00078547       0.00097898
O        7.57509766       6.12009022      12.23159545        3       0.00034957      -0.00277695       0.07455676
C        4.54519199       7.86953438      10.00257528        2       0.00043556       0.00028084       0.00131095
Ti       4.54476851       9.61669638      11.30979082        0      -0.00007613      -0.00082803       0.00091439
Ti       6.06144112       8.74531263       8.69416959        0       0.00020080      -0.00063342      -0.00099839
O        4.54570254       9.61988853       7.77097147        1       0.00014517       0.00126506       0.00266691
O        6.06117521       8.74517729      12.23159545        3      -0.00053441      -0.00033062       0.06925908
C        0.06851528       0.05756547      17.13724320       10      -0.00039613       0.00199955       0.00121392
C        1.27536864       0.76061629      17.14563143       10      -0.00077535       0.00189489      -0.04360475
C       -1.12056645       2.14443340      17.11287253       10       0.00065372       0.00114457       0.54463229
C        0.06616932       2.85841466      17.12051127       10       0.00000007       0.00152198      -0.02909610
C       -2.36356414       4.29686016      17.11286698       10      -0.00019009       0.00049442       0.36898787
C       -1.15252853       4.96792002      17.12050871       10      -0.00047564       0.00069810       0.01400582
C       -3.57659869       6.37342644      17.13724265       10       0.00128051       0.00051635      -0.01824379
C       -2.36368164       7.06552162      17.14563123       10       0.00035798       0.00261390      -0.00532901
C       -4.78736426       8.46132098      17.13535026       10      -0.00074446       0.00156932      -0.01571959
C       -3.57560574       9.16054314      17.14663992       10      -0.00171912       0.00184275      -0.03317476
C        2.48676641       0.06142567      17.14766494       10      -0.00105521       0.00153399      -0.00588344
C        3.69566723       0.76245351      17.14663983       10       0.00009785       0.00077164      -0.02310555
C        1.28099429       2.15774072      17.13724341       10       0.00047500       0.00175707      -0.01642946
C        2.48602357       2.86182743      17.12818328       10       0.00101701       0.00114802      -0.01872406
C        0.06363974       4.26388260      17.09438339       10      -0.00069476       0.00046219      -0.03247032
C        1.27043462       4.96118336      17.10605334       10       0.00000734      -0.00132936      -0.02522648
C       -1.15194737       6.37170331      17.13724265       10      -0.00028429       0.00071322      -0.02345156
C        0.06070465       7.06321259      17.12818338       10      -0.00002491       0.00014646       0.00734866
C       -2.36356754       8.46384482      17.14766515       10      -0.00117435       0.00298705      -0.01750217
C       -1.15259513       9.16045443      17.14663992       10      -0.00060963       0.00165697      -0.02129428
C        4.90514566       0.06146598      17.14766494       10       0.00030899       0.00066513      -0.00785153
C        6.11626210       0.76113176      17.14563143       10       0.00082913      -0.00173587       0.00230185
C        3.69555514       2.16156281      17.13535013       10       0.00118149       0.00113382      -0.00663429
C        4.90500848       2.86262593      17.12818328       10       0.00040095       0.00159616       0.02024900
C        2.48375858       4.26086834      17.11429978       10       0.00059740       0.00052883      -0.00910015
C        3.69574841       4.96173961      17.11151192       10      -0.00032078       0.00076239      -0.01160072
C        1.27041166       6.36238476      17.11429968       10      -0.00023853      -0.00211272      -0.03955631
C        2.48363480       7.06127041      17.11151181       10       0.00040601      -0.00218512      -0.02107198
C        0.05896177       8.46102329      17.13535026       10      -0.00062105       0.00050007      -0.04006694
C        1.27047525       9.15885100      17.12818313       10       0.00081765      -0.00166888      -0.01145143
C        7.32291628       0.05889677      17.13724320       10       0.00121535      -0.00178119      -0.01051620
C        8.53869325       0.76149371      17.12051108       10       0.00091833      -0.00098215       0.01601062
C        6.10941881       2.15757388      17.13724341       10      -0.00065501      -0.00134955       0.00118779
C        7.32586881       2.85774921      17.12051127       10      -0.00118839      -0.00083207       0.04549346
C        4.90741375       4.26042905      17.11429978       10      -0.00095880       0.00158550       0.01568640
C        6.12028191       4.96140599      17.10605334       10      -0.00080135       0.00100499      -0.00100518
C        3.69546395       6.36116774      17.10843392       10       0.00122666      -0.00027857      -0.02674781
C        4.90756331       7.06102701      17.11151181       10       0.00150514       0.00062534      -0.01488529
C        2.48212004       8.46124986      17.11429951       10       0.00171507      -0.00147621      -0.03084193
C        3.69568425       9.16186639      17.10605293       10       0.00193776       0.00073729      -0.03944091
C        9.75602927       0.05953145      17.09438334       10       0.00155663       0.00111712      -0.02243620
C       10.97422330       0.75963709      17.12051108       10       0.00033407       0.00180712      -0.03895060
C        8.51518357       2.14608293      17.11287253       10      -0.00077598      -0.00147443       0.35036314
C        9.75590844       2.86380580      16.86851327       10      -0.00113413       0.00037447      -1.68965715
C        7.32777503       4.26447805      17.09438339       10      -0.00127648      -0.00025779      -0.02507806
C        8.54508133       4.97005941      17.12050871       10      -0.00037833      -0.00038313       0.03350070
C        6.12065444       6.36234233      17.11429968       10       0.00134495       0.00092088       0.00193538
C        7.32993444       7.06359838      17.12818338       10       0.00141629       0.00111898       0.00082953
C        4.90853270       8.46113355      17.11429951       10       0.00156066       0.00093917      -0.01444338
C        6.12115831       9.15845078      17.12818313       10       0.00019203       0.00214611      -0.03534156
O        9.83439761       2.82228102      15.31932662       11      -0.00146557      -0.00659440       0.00631998
H        9.06967520       3.28581211      14.92506172       12      -0.00383450       0.00177098      -0.00517750
