131
Lattice="12.12 0.0 0.0 -6.06 10.496227893867395 0.0 0.0 0.0 40.0" Properties=species:S:1:pos:R:3:tags:I:1:forces:R:3 energy=-1204.9051881911023 stress="0.002826506013950425 3.0897249317321277e-07 2.4132812566724125e-06 3.0897249317321277e-07 0.002836131372414807 5.787532593379776e-06 2.4132812566724125e-06 5.787532593379776e-06 0.0027463802958743594" pbc="T T F"
C       -0.35614806       0.10321074       9.98735805        2      -0.00149389       0.00172650       0.00147542
Ti      -0.34619348       1.85173337      11.31601529        0      -0.00092244       0.00347504       0.00011921
Ti       1.16959938       0.97328672       8.70029525        0       0.00154886       0.00130292      -0.00040001
O       -0.34575331       1.85142625       7.77401120        1       0.00026728       0.00015180      -0.00206595
O        1.15995143       0.97874316      12.23159545        3      -0.00118267       0.00095508      -0.02828789
C       -1.86392701       2.71982308       9.98897512        2       0.00072793      -0.00151440       0.00084961
Ti      -1.86411814       4.46463630      11.29946720        0       0.00457785      -0.00141592       0.00187305
Ti      -0.34868367       3.60202663       8.70106767        0       0.00097875      -0.00063531       0.00003433
O       -1.86373948       4.47963226       7.77953734        1       0.00002170      -0.00174987       0.00030839
O       -0.35024524       3.59643356      12.23159545        3      -0.00063782       0.00412267      -0.05646914
C       -3.37883157       5.34678904       9.99232127        2       0.00046375      -0.00078708       0.00151059
Ti      -3.36228718       7.11337189      11.33669865        0      -0.00026545       0.00042183      -0.00021865
Ti      -1.86323896       6.22337674       8.71559175        0      -0.00221174      -0.00136838      -0.00224428
O       -3.37490706       7.10053069       7.79075396        1       0.00135297       0.00100045       0.00182808
O       -1.86276438       6.20295702      12.23159545        3      -0.00288050       0.00347093      -0.15122461
C       -4.90023637       7.97340017       9.98795190        2       0.00101810       0.00053862       0.00279538
Ti      -4.91602602       9.73341126      11.28303507        0       0.00341957      -0.00047383       0.00237246
Ti      -3.38386440       8.84869766       8.72008770        0      -0.00011196       0.00097208      -0.00258381
O       -4.89063088       9.72002498       7.77581735        1      -0.00216403       0.00241488       0.00027372
O       -3.42958140       8.86011845      12.23159545        3       0.00451756       0.00032360      -0.35949829
C        2.67689462       0.10126426       9.99421281        2       0.00057702       0.00113333       0.00295002
Ti       2.68028193       1.84244050      11.31343552        0      -0.00184436       0.00263916      -0.00117482
Ti       4.19608546       0.97364753       8.70662118        0       0.00029570      -0.00144788      -0.00372127
O        2.68356525       1.84809129       7.78034320        1       0.00052349       0.00011056      -0.00295090
O        4.19675424       0.97357177      12.23159545        3      -0.00146680       0.00384466       0.00059184
C        1.16460957       2.72471162       9.98992885        2       0.00206989       0.00049971      -0.00052851
Ti       1.16436819       4.47469084      11.31812048        0      -0.00189026       0.00191445       0.00148347
Ti       2.68045646       3.59842787       8.70236293        0       0.00025956       0.00197178      -0.00046864
O        1.16690469       4.47443660       7.77882455        1      -0.00040061       0.00171524       0.00036727
O        2.67677254       3.59439969      12.23159545        3       0.00189214       0.00083295      -0.04470018
C       -0.34821727       5.34643645       9.99267524        2      -0.00124074       0.00159425       0.00011475
Ti      -0.36311352       7.11414223      11.33867748        0      -0.00348238       0.00267546       0.00099261
Ti       1.16386214       6.22412748       8.70169626        0       0.00103132      -0.00115479      -0.00138852
O       -0.35205027       7.10093838       7.79149032        1       0.00063647      -0.00032728      -0.00199690
O        1.16914027       6.21969160      12.23159545        3      -0.00161985       0.00199726      -0.02282695
C       -1.86254871       7.97603120      10.02803548        2      -0.00158272       0.00223455      -0.00005668
Ti      -1.86204877       9.68215419      11.38732998        0       0.00003737       0.00317726      -0.00359096
Ti      -0.34243630       8.84921433       8.72079836        0      -0.00078363       0.00143963      -0.00374560
O       -1.86328279       9.71796155       7.80136931        1       0.00001759      -0.00032514      -0.00172141
O       -0.29279685       8.86157428      12.23159545        3      -0.00486325       0.00322031      -0.38786886
C        5.71655874       0.10174443       9.99432663        2       0.00081057       0.00278908       0.00059604
Ti       5.71361133       1.84293904      11.31269062        0      -0.00033637       0.00289178       0.00289280
Ti       7.22222735       0.97469626       8.70018543        0       0.00043922      -0.00240076      -0.00308098
O        5.70832024       1.84851967       7.77988213        1       0.00112026       0.00008535      -0.00139535
O        7.23393623       0.97997102      12.23159545        3      -0.00061212      -0.00146670      -0.02672008
C        4.19603564       2.72052006       9.99554216        2       0.00029875       0.00077525      -0.00011393
Ti       4.19525230       4.46903348      11.31467307        0       0.00392075      -0.00064331       0.00131707
Ti       5.71119177       3.59891064       8.70267735        0      -0.00050708       0.00153896      -0.00218585
O        4.19549752       4.47077897       7.77742284        1       0.00313657       0.00114220       0.00186767
O        5.71418077       3.59491929      12.23159545        3       0.00299298       0.00051350      -0.04712350
C        2.68147921       5.34651017       9.99245871        2       0.00106092       0.00008391       0.00260670
Ti       2.67952974       7.10007638      11.31940032        0      -0.00198805       0.00264798       0.00194669
Ti       4.19633442       6.21944301       8.70550151        0      -0.00087174       0.00090363      -0.00248479
O        2.68062861       7.09428434       7.77752018        1      -0.00068543       0.00052078       0.00070398
O        4.19642929       6.22257092      12.23159545        3       0.00040287      -0.00005433      -0.06100531
C        1.17441194       7.97380675       9.98771828        2      -0.00172969       0.00080135       0.00098638
Ti       1.19083971       9.73482204      11.28234480        0       0.00398388      -0.00076990      -0.00022529
Ti       2.68058829       8.84328266       8.69411172        0       0.00031766      -0.00025049       0.00096068
O        1.16411447       9.72125707       7.77591174        1      -0.00011825      -0.00122551      -0.00087488
O        2.68897866       8.84782717      12.23159545        3      -0.00402696      -0.00032691      -0.05859154
C        8.74993637       0.10430171       9.98709765        2      -0.00048505      -0.00056510       0.00174513
Ti       8.74047015       1.85235072      11.31577524        0      -0.00246057       0.00223563      -0.00074392
Ti      10.25566716       0.97602182       8.68278236        0       0.00147163      -0.00040138       0.00136803
O        8.73809095       1.85213055       7.77359881        1       0.00123898      -0.00147167      -0.00074460
O       10.25691061       0.97719789      12.23159545        3      -0.00021614       0.00019134      -0.08927270
C        7.22731415       2.72547564       9.98960200        2       0.00087859      -0.00066704      -0.00009800
Ti       7.22738170       4.47456682      11.31804381        0       0.00105137       0.00139317       0.00324931
Ti       8.74039249       3.60262434       8.70096776        0       0.00288871       0.00007215      -0.00131798
O        7.22494865       4.47483259       7.77849338        1       0.00180270      -0.00002648       0.00124885
O        8.74256110       3.59751404      12.23159545        3       0.00211648      -0.00015324      -0.05343816
C        5.71060608       5.34637538       9.99247795        2       0.00168862       0.00131916       0.00181413
Ti       5.71442109       7.09936011      11.32021952        0      -0.00133646       0.00129755       0.00052807
Ti       7.22897069       6.22415161       8.70142452        0       0.00370798       0.00157914       0.00003362
O        5.71203564       7.09407317       7.77761583        1       0.00118281       0.00068635       0.00040451
O        7.22494691       6.21959208      12.23159545        3      -0.00077240       0.00416224      -0.02607336
C        4.19676065       7.97204433       9.98720386        2       0.00045545      -0.00107115       0.00070640
Ti       4.19735399       9.72061524      11.31116750        0      -0.00327211      -0.00115265       0.00074966
Ti       5.71202244       8.84290215       8.69458479        0       0.00118187       0.00175966       0.00092771
O        4.19649233       9.72119883       7.76997769        1       0.00093056      -0.00169452      -0.00052083
O        5.70534440       8.84736240      12.23159545        3       0.00136979       0.00201893      -0.05794286
C        0.58895219      -0.08618171      15.96974682       10       0.00189936      -0.00293117       0.04198756
C        1.79548129       0.61499912      15.95445477       10      -0.00163216      -0.00182763       0.02421849
C       -0.62245296       2.01105664      15.97506752       10      -0.00043779      -0.00012729      -0.00643722
C        0.58923004       2.71073300      15.95735709       10       0.00012794      -0.00142668      -0.00120247
C       -1.83365137       4.10815194      15.96974682       10      -0.00145110       0.00214928       0.01038680
C       -0.62296616       4.80238990      15.95445477       10       0.00210624      -0.00199791       0.01249907
C       -3.04077353       6.20912692      15.90663607       10       0.00193762      -0.00304566       0.15250489
C       -1.83396537       6.88800746      15.86481385       10       0.00155670      -0.00354387      -0.36546500
C       -4.25430885       8.31408357      15.90663607       10      -0.00102521       0.00040469       0.13626992
C       -3.06207270       9.01940021      15.86481385       10      -0.00740508       0.00138214      -0.39794960
C        3.01219642      -0.09272524      15.90663607       10      -0.00087681       0.00103734       0.15220467
C        4.22621946       0.61376488      15.87455739       10       0.00050529      -0.00293155      -0.00402516
C        1.80125894       2.01230542      15.94341180       10      -0.00133451      -0.00137365       0.03757529
C        3.01291021       2.71052192      15.92149739       10      -0.00198749      -0.00118802       0.02743677
C        0.58978134       4.10871459      15.94341180       10       0.00234494      -0.00261804       0.01758605
C        1.80113742       4.81010857      15.92149739       10       0.00126863      -0.00189693       0.03294121
C       -0.62734331       6.20926435      15.90663607       10       0.00292682      -0.00238600       0.15407278
C        0.59099345       6.90894240      15.87455739       10      -0.00060327      -0.00013605      -0.00363478
C       -1.83443416       8.30589214      15.41200819       10      -0.00379674       0.00003433       1.06070585
C       -0.60592180       9.01913647      15.86481385       10       0.00174710      -0.00019706      -0.41252318
C        5.44008209      -0.09283228      15.90663607       10       0.00140229      -0.00015233       0.14490554
C        6.65707661       0.61472904      15.95445477       10      -0.00110811       0.00165037       0.02670282
C        4.22642988       2.00900169      15.90689110       10      -0.00311789      -0.00392160       0.01281187
C        5.43985408       2.71059395      15.92149739       10      -0.00212612      -0.00534072       0.02794516
C        3.01412568       4.11068921      15.91881578       10       0.00214252      -0.00039283       0.00671309
C        4.22610659       4.81050028      15.91381501       10       0.00228772      -0.00058360       0.00965354
C        1.79929355       6.21183472      15.90689110       10      -0.00370985      -0.00253106       0.00235306
C        3.01406994       6.91172602      15.92149739       10      -0.00476091      -0.00100849       0.04166687
C        0.58623366       8.31411297      15.90663607       10       0.00309619      -0.00084190       0.13509988
C        1.80718900       9.01398706      15.95445477       10       0.00286111      -0.00159972       0.03596913
C        7.86374708      -0.08628586      15.96974682       10      -0.00556157      -0.00318879       0.04532033
C        9.07730851       0.61382889      15.97668534       10      -0.00546810      -0.00461659       0.00561934
C        6.65134594       2.01212943      15.94341180       10       0.00056358       0.00036762       0.04111118
C        7.86339474       2.71049008      15.95735709       10      -0.00002077       0.00034808       0.00303811
C        5.43813325       4.11076732      15.91881578       10       0.00052125      -0.00470470       0.00855043
C        6.65126284       4.80988328      15.92149739       10      -0.00098967      -0.00026623       0.03380433
C        4.22606792       6.20996852      15.91881578       10      -0.00185628       0.00087995       0.01219368
C        5.43815633       6.91158219      15.92149739       10       0.00066437      -0.00006841       0.04226545
C        3.01494659       8.31053334      15.94341180       10       0.00285292      -0.00065708       0.03388441
C        4.22604803       9.01015667      15.95735709       10       0.00273622      -0.00132110       0.03073515
C       10.28633207      -0.08567541      15.97506752       10      -0.00054106      -0.00075590       0.01409798
C       11.49558976       0.61374461      15.97668534       10      -0.00221888      -0.00181484       0.00434748
C        9.07521276       2.01101498      15.97506752       10      -0.00099892      -0.00217715      -0.00466176
C       10.28635339       2.70780153      15.97668534       10      -0.00094433       0.00133711      -0.01512281
C        7.86268445       4.10841978      15.94341180       10      -0.00240806      -0.00068859       0.01973082
C        9.07536306       4.80231672      15.95445477       10      -0.00353639      -0.00174368       0.01557282
C        6.65283466       6.21157807      15.90689110       10       0.00348625       0.00129139       0.00264632
C        7.86097809       6.90887950      15.87455739       10       0.00498749       0.00070350      -0.00112002
C        5.43706984       8.31054470      15.94341180       10       0.00112883      -0.00105853       0.03283586
C        6.64504801       9.01400181      15.95445477       10      -0.00401277      -0.00332463       0.03709606
O       -1.84295780       8.27421626      14.08315652       11       0.00255713       0.00105516      -0.00782496
