130
Lattice="12.12 0.0 0.0 -6.06 10.496227893867395 0.0 0.0 0.0 40.0" Properties=species:S:1:pos:R:3:tags:I:1:forces:R:3 energy=-1200.7491717655548 stress="0.002826663675514466 3.464998018384454e-08 1.6210070363423528e-07 3.464998018384454e-08 0.002826678851051602 2.3359372597949149e-07 1.6210070363423528e-07 2.3359372597949149e-07 0.0021248290898538383" pbc="T T F"
C        0.00003109       0.00006052      10.00061607        2       0.00009489       0.00010475       0.00089325
Ti       0.00000832       1.74958761      11.30473504        0       0.00012815       0.00060386      -0.00303933
Ti       1.51491283       0.87465407       8.69000674        0      -0.00009468      -0.00000302      -0.00087865
O       -0.00002204       1.74940642       7.76841814        1      -0.00002053       0.00005973      -0.00179344
O        1.51358561       0.87410067      12.23159545        3      -0.00003223       0.00005193       0.01494718
C       -1.51488300       2.62398024      10.00102775        2       0.00025340       0.00001882       0.00130711
Ti      -1.51469984       4.37373917      11.30472311        0       0.00020361       0.00029663      -0.00239694
Ti       0.00000869       3.49864216       8.68995978        0      -0.00000339      -0.00005969      -0.00101119
O       -1.51519495       4.37334791       7.76848135        1      -0.00050546      -0.00016989      -0.00122648
O        0.00022565       3.49878380      12.23159545        3      -0.00001340       0.00007725       0.03594087
C       -3.02988174       5.24818333      10.00138542        2       0.00018665       0.00011305       0.00205488
Ti      -3.02962977       6.99770260      11.30473583        0       0.00010656      -0.00002999      -0.00244010
Ti      -1.51499166       6.12279966       8.68997011        0      -0.00012389      -0.00001867      -0.00105255
O       -3.03018395       6.99736445       7.76848219        1      -0.00046839      -0.00026306      -0.00111247
O       -1.51352892       6.12378036      12.23159545        3      -0.00009218       0.00003004       0.02263133
C       -4.54503380       7.87234831      10.00109291        2       0.00014218       0.00024729       0.00154419
Ti      -4.54486039       9.62154250      11.30470769        0       0.00029744       0.00004476      -0.00298083
Ti      -3.03007966       8.74692446       8.68995166        0      -0.00008198       0.00003790      -0.00097440
O       -4.54499894       9.62150613       7.76840603        1       0.00001048      -0.00004085      -0.00165986
O       -3.02980115       8.74725280      12.23159545        3       0.00012957      -0.00003505       0.03555766
C        3.02984349      -0.00001689      10.00091082        2      -0.00007990      -0.00018139       0.00144119
Ti       3.02973430       1.74916929      11.30485491        0       0.00005210       0.00010341      -0.00196739
Ti       4.54490586       0.87462268       8.69006075        0      -0.00003061       0.00015764       0.00003901
O        3.03021103       1.74951046       7.76854264        1       0.00037931       0.00021900      -0.00087042
O        4.54372126       0.87263452      12.23159545        3       0.00009780      -0.00002768       0.04821161
C        1.51487848       2.62397152      10.00091011        2      -0.00020788       0.00002811       0.00133754
Ti       1.51467750       4.37381486      11.30470463        0       0.00010615       0.00039984      -0.00244759
Ti       3.02988206       3.49869237       8.69006727        0       0.00001628      -0.00006798       0.00008502
O        1.51516939       4.37335508       7.76850311        1       0.00035927      -0.00017758      -0.00143367
O        3.02757693       3.49838258      12.23159545        3      -0.00006882       0.00015453       0.05310856
C       -0.00001442       5.24808122      10.00068672        2       0.00009006       0.00026294       0.00119984
Ti       0.00002866       6.99754850      11.30483485        0       0.00011731      -0.00013856      -0.00320625
Ti       1.51498530       6.12280359       8.69001249        0       0.00013662      -0.00000426      -0.00109969
O       -0.00000489       6.99747952       7.76852648        1      -0.00008848      -0.00000438      -0.00183379
O        1.51381056       6.12383710      12.23159545        3       0.00004579       0.00014803       0.01469484
C       -1.51505808       7.87220268      10.00067127        2       0.00019733      -0.00003072       0.00124230
Ti      -1.51485412       9.62110769      11.30472811        0       0.00038609      -0.00019716      -0.00263101
Ti      -0.00000104       8.74685093       8.69004729        0       0.00002946       0.00011819      -0.00108741
O       -1.51499901       9.62172567       7.76849964        1      -0.00003335       0.00040375      -0.00134042
O        0.00021761       8.74543125      12.23159545        3       0.00010571       0.00018499       0.00929777
C        6.05998034      -0.00004218      10.00127815        2      -0.00002957      -0.00032335       0.00180232
Ti       6.05993249       1.74891595      11.30519332        0       0.00000668      -0.00025202      -0.00079066
Ti       7.57506012       0.87464987       8.69007950        0       0.00003127       0.00020549       0.00011873
O        6.06000234       1.74959816       7.76873481        1       0.00003247       0.00053078       0.00028981
O        7.57588030       0.87259763      12.23159545        3       0.00011327       0.00001873       0.05433577
C        4.54484560       2.62394979      10.00202029        2      -0.00020366      -0.00018821       0.00244891
Ti       4.54451217       4.37359040      11.30524226        0      -0.00018552       0.00002090      -0.00065442
Ti       6.05999601       3.49874245       8.69049556        0      -0.00000060       0.00006104       0.00175447
O        4.54518596       4.37333993       7.76874789        1       0.00044767      -0.00019368       0.00043749
O        6.06007688       3.49889255      12.23159545        3      -0.00012506      -0.00008474       0.03109100
C        3.02990602       5.24813147      10.00133433        2      -0.00024882       0.00017795       0.00180542
Ti       3.02963857       6.99775542      11.30473874        0      -0.00007774      -0.00002365      -0.00245238
Ti       4.54499417       6.12286595       8.69008616        0       0.00019711      -0.00007810       0.00033402
O        3.03017549       6.99738328       7.76852722        1       0.00052702      -0.00019911      -0.00129447
O        4.54374034       6.12441983      12.23159545        3       0.00015469       0.00008497       0.06056634
C        1.51505300       7.87221553      10.00060896        2       0.00000665      -0.00003842       0.00110158
Ti       1.51497479       9.62114996      11.30474367        0       0.00000398      -0.00035626      -0.00259012
Ti       3.03007505       8.74691542       8.68997068        0       0.00010638       0.00003137      -0.00104575
O        1.51500581       9.62173512       7.76852446        1       0.00004584       0.00052147      -0.00134186
O        3.02994371       8.74705746      12.23159545        3       0.00027215       0.00018012       0.03498850
C        9.09018841      -0.00000025      10.00100482        2       0.00015529      -0.00011729       0.00135202
Ti       9.09020481       1.74914085      11.30490897        0       0.00002803      -0.00017809      -0.00188619
Ti      10.60511136       0.87464983       8.68999071        0       0.00008870       0.00000791      -0.00077054
O        9.08980601       1.74951124       7.76856145        1      -0.00039739       0.00029396      -0.00074246
O       10.60665698       0.87409015      12.23159545        3      -0.00024238       0.00021114       0.02133128
C        7.57509864       2.62391961      10.00200498        2       0.00015225      -0.00010095       0.00263434
Ti       7.57537873       4.37362310      11.30527818        0       0.00023721      -0.00007244      -0.00059651
Ti       9.09010102       3.49870367       8.69007085        0      -0.00004935      -0.00010839       0.00033881
O        7.57482031       4.37334378       7.76876540        1      -0.00038196      -0.00018416       0.00061660
O        9.09205034       3.49842889      12.23159545        3       0.00008290      -0.00010378       0.06082289
C        6.05993730       5.24826233      10.00203563        2       0.00009675       0.00020548       0.00256730
Ti       6.05993624       6.99778351      11.30495565        0      -0.00018339       0.00015467      -0.00172330
Ti       7.57501340       6.12289626       8.69008522        0      -0.00020626      -0.00007060       0.00048956
O        6.06000595       6.99725372       7.76856337        1       0.00005448      -0.00038741      -0.00050196
O        7.57584498       6.12440023      12.23159545        3      -0.00005763       0.00000338       0.06131042
C        4.54507553       7.87235947      10.00108076        2      -0.00002471       0.00026740       0.00148744
Ti       4.54496828       9.62154871      11.30470189        0      -0.00013963       0.00011837      -0.00297001
Ti       6.06001724       8.74698918       8.68998433        0      -0.00000856       0.00012765      -0.00070940
O        4.54500011       9.62152898       7.76842457        1       0.00004610       0.00000506      -0.00168792
O        6.06017366       8.74881015      12.23159545        3      -0.00021985      -0.00015455       0.02717234
C        0.04481377       0.06754779      17.02106913       10       0.00569475       0.00140673      -0.00597786
C        1.25685245       0.76717242      17.02106913       10       0.00273937       0.00178104      -0.04849787
C       -1.16674609       2.16664839      17.02106913       10      -0.00051789       0.00005387      -0.01043712
C        0.04510312       2.86621106      17.02106913       10      -0.00243624       0.00122347      -0.02727053
C       -2.37902478       4.26601889      17.02106913       10       0.00117850      -0.00127099      -0.00148573
C       -1.16687601       4.96564695      17.02106913       10       0.00060757       0.00099473      -0.00749121
C       -3.59119292       6.36528000      17.02106913       10       0.00321399      -0.00104302      -0.00330177
C       -2.37908095       7.06514869      17.02106913       10       0.00176900      -0.00129956      -0.00766672
C       -4.80289439       8.46468367      17.02106913       10       0.00051774      -0.00096080      -0.00899177
C       -3.59108087       9.16430339      17.02106913       10      -0.00218608      -0.00182005      -0.02500788
C        2.46864846       0.06728226      17.02106913       10       0.00389800       0.00207924      -0.01253023
C        3.68068011       0.76724468      17.02106913       10       0.00376134       0.00061538      -0.00339654
C        1.25688814       2.16656644      17.02106913       10      -0.00122643       0.00256458      -0.01195515
C        2.46900939       2.86646888      17.02106913       10      -0.00109306      -0.00046775      -0.00649201
C        0.04497315       4.26594092      17.02106913       10       0.00009747       0.00106851      -0.02220691
C        1.25676296       4.96567403      17.02106913       10       0.00044618      -0.00011224      -0.01033927
C       -1.16707572       6.36523362      17.02106913       10       0.00164530       0.00173150      -0.02792824
C        0.04492508       7.06511571      17.02106913       10       0.00100872      -0.00138942      -0.00782275
C       -2.37890518       8.46445082      17.02106913       10      -0.00051902      -0.00081222      -0.02130420
C       -1.16708472       9.16417801      17.02106913       10      -0.00064019      -0.00171737      -0.01186456
C        4.89280970       0.06749665      17.02106913       10       0.00231370       0.00049836      -0.00148875
C        6.10491541       0.76720009      17.02106913       10       0.00175455       0.00181044      -0.00137911
C        3.68105950       2.16678635      17.02106913       10      -0.00157095      -0.00040531      -0.00585389
C        4.89331428       2.86670338      17.02106913       10      -0.00134102      -0.00075563       0.00153621
C        2.46895522       4.26604865      17.02106913       10       0.00002716      -0.00080027      -0.00072735
C        3.68102714       4.96577020      17.02106913       10       0.00010292       0.00062238      -0.00003584
C        1.25687661       6.36521518      17.02106913       10       0.00134784       0.00065100      -0.03341397
C        2.46883079       7.06510006      17.02106913       10       0.00153744       0.00024254      -0.00951064
C        0.04507500       8.46466935      17.02106913       10      -0.00185066      -0.00184030      -0.03902094
C        1.25726385       9.16407942      17.02106913       10      -0.00246708      -0.00055614      -0.01098157
C        7.31698214       0.06743470      17.02106913       10       0.00055813       0.00165849      -0.00475790
C        8.52903219       0.76723029      17.02106913       10       0.00046890       0.00068144      -0.00095378
C        6.10519660       2.16696313      17.02106913       10      -0.00100275       0.00136176      -0.00474336
C        7.31705976       2.86677005      17.02106913       10      -0.00165816      -0.00178498       0.00422125
C        4.89326320       4.26606141      17.02106913       10      -0.00033152       0.00001652      -0.00375177
C        6.10508010       4.96574817      17.02106913       10      -0.00009214      -0.00107095       0.00646672
C        3.68095514       6.36528372      17.02106913       10       0.00106576       0.00030847      -0.00569530
C        4.89295007       7.06518893      17.02106913       10       0.00109366      -0.00263216      -0.00069084
C        2.46912234       8.46441038      17.02106913       10      -0.00397534      -0.00076891      -0.02300380
C        3.68131080       9.16433952      17.02106913       10      -0.00414122      -0.00220390      -0.02494160
C        9.74099901       0.06730825      17.02106913       10       0.00208743       0.00168655      -0.01041365
C       10.95291416       0.76719304      17.02106913       10      -0.00057073       0.00079482      -0.04091613
C        8.52914496       2.16675732      17.02106913       10      -0.00185548       0.00119054      -0.00470490
C        9.74117011       2.86645867      17.02106913       10      -0.00332779       0.00092855      -0.00668251
C        7.31691607       4.26608311      17.02106913       10      -0.00066267      -0.00103795      -0.00238320
C        8.52897929       4.96575741      17.02106913       10      -0.00126970       0.00118986       0.00132095
C        6.10487201       6.36533419      17.02106913       10       0.00230141      -0.00123125      -0.00418043
C        7.31686117       7.06504684      17.02106913       10       0.00038931      -0.00016632      -0.00343621
C        4.89311043       8.46475946      17.02106913       10      -0.00292369      -0.00187361      -0.00828197
C        6.10519624       9.16439627      17.02106913       10      -0.00579813      -0.00156883      -0.03611709
