131
Lattice="12.12 0.0 0.0 -6.06 10.496227893867395 0.0 0.0 0.0 40.0" Properties=species:S:1:pos:R:3:tags:I:1:forces:R:3 energy=-1203.2506124104366 stress="0.002627488433206435 1.822620246076556e-07 2.582109906424248e-07 1.822620246076556e-07 0.0026276469297166014 -1.1939852029607883e-07 2.582109906424248e-07 -1.1939852029607883e-07 0.003004970324661586" pbc="T T F"
C       -0.34776188      -0.44762600       9.98910553        2       0.00044724       0.00226783       0.00336042
Ti      -0.34572358       1.30394893      11.27663407        0       0.00205317      -0.00105292      -0.00072115
Ti       1.17293994       0.42701352       8.71220874        0      -0.00147423      -0.00085425       0.00269190
O       -0.32811607       1.29435345       7.76176578        1      -0.00013466      -0.00296419       0.00146436
O        1.15708978       0.43616698      12.23008024        3      -0.00006848       0.00023471      -0.25503974
C       -1.85260567       2.17402304       9.98730092        2       0.00252263      -0.00153002      -0.00206363
Ti      -1.85261916       3.91375536      11.27589689        0       0.00178083       0.00040045       0.00382421
Ti      -0.33447153       3.05043214       8.69746008        0       0.00013453      -0.00033667      -0.00303787
O       -1.85213921       3.93405044       7.76202598        1      -0.00470048       0.00009041       0.00140493
O       -0.34126405       3.04601882      12.23008024        3       0.00100749       0.00308757      -0.39218291
C       -3.37042294       4.78752274       9.99001431        2       0.00141076      -0.00050723      -0.00266149
Ti      -3.37205451       6.53347925      11.28981661        0       0.00113453       0.00605137       0.00258194
Ti      -1.85260304       5.66722655       8.71270712        0       0.00484420       0.00226131       0.00080471
O       -3.35396430       6.56149083       7.78425510        1      -0.00087031       0.00065045      -0.00194128
O       -1.85253336       5.64906799      12.23008024        3       0.00160373       0.00004077      -0.25173350
C       -4.89926402       7.41217031       9.97922162        2      -0.00106574      -0.00080335      -0.00139164
Ti      -4.89648807       9.17391762      11.28944298        0      -0.00003794       0.00037030       0.00238940
Ti      -3.36416553       8.29830161       8.75314730        0      -0.00123476       0.00311206      -0.00206916
O       -4.86320035       9.17540350       7.78351527        1      -0.00008309       0.00200952       0.00329110
O       -3.59214828       8.16722102      12.23008024        3      -0.00182449      -0.00265330      -0.44143017
C        2.70391586      -0.45674387      10.06993539        2       0.00393231      -0.00026907       0.00053702
Ti       2.68285537       1.30986075      11.28919953        0       0.00070160      -0.00013980       0.00081257
Ti       4.20740623       0.42082067       8.75242343        0       0.00100929      -0.00000909       0.00260199
O        2.69837988       1.28024865       7.78330745        1      -0.00000694       0.00211016       0.00349650
O        4.20728078       0.68496785      12.23008024        3      -0.00062354       0.00005001      -0.44189838
C        1.16993604       2.18159142       9.98957240        2       0.00051567      -0.00243452      -0.00020251
Ti       1.17648010       3.92215076      11.28803963        0      -0.00168064       0.00373479       0.00115406
Ti       2.69490946       3.04745207       8.69761400        0      -0.00073103       0.00191612       0.00360366
O        1.17808391       3.92415576       7.75616208        1       0.00304658      -0.00134737       0.00007592
O        2.68471849       3.08369945      12.23008024        3       0.00232579       0.00039243      -0.37898745
C       -0.33465559       4.78797772       9.98971468        2      -0.00080831      -0.00508495       0.00378695
Ti      -0.33256769       6.53345189      11.28976440        0      -0.00242875       0.00241068       0.00175431
Ti       1.17751262       5.67570277       8.69888967        0       0.00181624      -0.00017338      -0.00617993
O       -0.35127201       6.56209981       7.78425255        1       0.00169421      -0.00164409       0.00248955
O        1.20470484       5.64848226      12.23008024        3      -0.00095635      -0.00150135      -0.37814199
C       -1.85262333       7.43558991      10.07068715        2       0.00374026       0.00011292      -0.00111567
Ti      -1.85190375       9.17181513      11.47659190        0      -0.00213438      -0.00466662       0.00251418
Ti      -0.34068869       8.29883207       8.75358401        0       0.00017199      -0.00191390      -0.00483971
O       -1.85211511       9.17132409       7.81402010        1      -0.00327729       0.00041697      -0.00110056
O       -0.11037834       8.16579618      12.23008024        3      -0.00305125       0.00259188      -0.44085552
C        5.71124070      -0.45669085      10.07060480        2      -0.00306814      -0.00009547      -0.00158064
Ti       5.73199435       1.31028950      11.28949212        0       0.00015335      -0.00261334       0.00023527
Ti       7.24220537       0.42766588       8.71274739        0       0.00067768      -0.00479106       0.00348253
O        5.71687540       1.28021049       7.78374439        1      -0.00040506       0.00252895       0.00114078
O        7.25802228       0.43625526      12.23008024        3       0.00049243       0.00127653      -0.25037116
C        4.20750915       2.19353946       9.97912188        2      -0.00121818      -0.00098904      -0.00398723
Ti       4.20726494       3.93040550      11.27653573        0       0.00083214      -0.00054760       0.00048991
Ti       5.71988426       3.04763963       8.69755030        0      -0.00076960      -0.00110434       0.00604850
O        4.20743604       3.92350363       7.75011811        1      -0.00010595      -0.00096665       0.00078387
O        5.72962736       3.08404930      12.23008024        3       0.00194354      -0.00102348      -0.37770712
C        2.69497893       4.79942110       9.98501631        2       0.00119331      -0.00011959       0.00076755
Ti       2.69906688       6.54379717      11.27729531        0      -0.00177921      -0.00125618      -0.00122899
Ti       4.20723903       5.67263431       8.68851227        0       0.00050953       0.00195203      -0.00019361
O        2.69237363       6.54767405       7.75036047        1       0.00185426      -0.00376344       0.00202529
O        4.20767168       5.67248081      12.23008024        3      -0.00081731       0.00141062      -0.36987048
C        1.19472717       7.41255513       9.97907267        2      -0.00027173      -0.00321374       0.00281874
Ti       1.19258972       9.17429700      11.28955955        0      -0.00617002      -0.00130344       0.00143808
Ti       2.69015370       8.29516674       8.69756889        0      -0.00030438      -0.00035026       0.00153174
O        1.15807739       9.17609375       7.78408628        1       0.00212517       0.00043191       0.00124294
O        2.72741458       8.28550775      12.23008024        3      -0.00020994      -0.00044896      -0.37916578
C        8.76327865      -0.44733292       9.98971390        2      -0.00088500       0.00060485      -0.00043217
Ti       8.76111074       1.30381651      11.27709928        0      -0.00271381       0.00085650      -0.00222683
Ti      10.26781428       0.42136042       8.69719041        0      -0.00124982      -0.00175560      -0.00054889
O        8.74363945       1.29395082       7.76233454        1      -0.00335235       0.00099856      -0.00231109
O       10.26778609       0.42873574      12.23008024        3      -0.00045447      -0.00097416      -0.39214673
C        7.24478084       2.18148417       9.99002911        2       0.00373192       0.00125122      -0.00423520
Ti       7.23850207       3.92239545      11.28802304        0       0.00020015       0.00046470       0.00036195
Ti       8.74961508       3.05031331       8.69758961        0       0.00191029      -0.00098271      -0.00082390
O        7.23680634       3.92350535       7.75578756        1      -0.00070333       0.00141780       0.00127604
O        8.75614814       3.04625626      12.23008024        3      -0.00050662       0.00173104      -0.38964479
C        5.71986331       4.79948604       9.98489722        2       0.00061749      -0.00224010       0.00079129
Ti       5.71637562       6.54362845      11.27681621        0       0.00144990       0.00255939       0.00076357
Ti       7.23729629       5.67508250       8.69804423        0      -0.00350057       0.00315707       0.00303662
O        5.72242036       6.54682988       7.75027885        1      -0.00035216       0.00148003       0.00091248
O        7.21077472       5.64866209      12.23008024        3      -0.00035233      -0.00102070      -0.37747458
C        4.20760228       7.41899452       9.98476708        2       0.00052223       0.00071903       0.00210626
Ti       4.20778833       9.17253285      11.28674116        0       0.00363679      -0.00026365       0.00543964
Ti       5.72453435       8.29486996       8.69739333        0       0.00362698       0.00006673       0.00229022
O        4.20741087       9.17033583       7.75546017        1       0.00125304       0.00101791       0.00211747
O        5.68880513       8.28537043      12.23008024        3      -0.00339746       0.00125213      -0.38295195
C        0.57129463       0.77566181      15.25770529       10      -0.00010472      -0.00377273       0.17853391
C        1.78149151       1.47559657      15.24241324       10       0.00239562       0.00044415       0.10032036
C       -0.63887263       2.87434114      15.26302599       10       0.00123573      -0.00182609       0.13805162
C        0.57302670       3.57395706      15.24531556       10       0.00013125       0.00068754       0.08945246
C       -1.85126913       4.97170222      15.25770529       10      -0.00131696       0.00080935       0.17863352
C       -0.63997134       5.66971499      15.24241324       10      -0.00057170       0.00150187       0.10033105
C       -3.05862602       7.07617763      15.19459454       10       0.00074889       0.00100810       0.11337283
C       -1.85136227       7.75659949      15.15277232       10       0.00053856       0.00056863      -0.30967036
C       -4.26967596       9.17405011      15.19459454       10      -0.00279249      -0.00050651       0.11361725
C       -3.07674946       9.87929378      15.15277232       10       0.00092354       0.00095591      -0.31537257
C        2.99750368       0.76885374      15.19459454       10      -0.00101307      -0.00071254       0.11353825
C        4.20862289       1.47532779      15.16251586       10       0.00042919      -0.00155985       0.37019825
C        1.78542065       2.87330985      15.23137027       10      -0.00201398      -0.00250265       0.10920072
C        2.99664131       3.57303203      15.20945586       10      -0.00082061      -0.00111172       0.12630235
C        0.57238425       4.97424614      15.23137027       10      -0.00310776      -0.00034995       0.10920262
C        1.78382339       5.67350640      15.20945586       10       0.00035540      -0.00068724       0.12625306
C       -0.64408441       7.07614503      15.19459454       10      -0.00259750       0.00113532       0.11352505
C        0.57313654       7.77197718      15.16251586       10       0.00046042       0.00009060       0.37011334
C       -1.85119414       9.17172303      14.69996666       10      -0.00147458      -0.00056304       1.24231604
C       -0.62582727       9.87941096      15.15277232       10      -0.00109001      -0.00119994      -0.30898473
C        5.41976601       0.76889089      15.19459454       10      -0.00036128       0.00054753       0.11341252
C        6.63573698       1.47556415      15.24241324       10       0.00006493      -0.00019448       0.10057425
C        4.20875962       2.87069691      15.19484957       10      -0.00178295      -0.00127306      -0.01145145
C        5.42090304       3.57292580      15.20945586       10      -0.00188157      -0.00048461       0.12647836
C        2.99632461       4.97324436      15.20677425       10       0.00127956      -0.00156591       0.09231225
C        4.20868563       5.67314899      15.20177348       10      -0.00032713      -0.00155205       0.14611244
C        1.78156424       7.07437577      15.19484957       10       0.00165507      -0.00077658      -0.01159091
C        2.99584483       7.77294069      15.20945586       10      -0.00073215      -0.00136977       0.12627354
C        0.56700514       9.17405528      15.19459454       10       0.00060302       0.00031597       0.11368440
C        1.78702692       9.87373490      15.24241324       10      -0.00130394       0.00068846       0.10056805
C        7.84580174       0.77550514      15.25770529       10       0.00230436       0.00080125       0.17847668
C        9.05769347       1.47520636      15.26464381       10       0.00221483       0.00053616       0.04532599
C        6.63212217       2.87320781      15.23137027       10      -0.00314772       0.00104452       0.10882283
C        7.84441651       3.57394575      15.24531556       10       0.00001127      -0.00012908       0.08974385
C        5.42103510       4.97311139      15.20677425       10      -0.00009238       0.00097575       0.09236182
C        6.63352985       5.67335222      15.20945586       10       0.00141479       0.00048844       0.12648432
C        4.20855356       7.07303422      15.20677425       10       0.00263466      -0.00002849       0.09226645
C        5.42131556       7.77287315      15.20945586       10       0.00157766       0.00022699       0.12641131
C        2.99554761       9.17170229      15.23137027       10       0.00248596      -0.00006902       0.10906981
C        4.20862291       9.87121342      15.24531556       10      -0.00028462       0.00043141       0.08995193
C       10.26850599       0.77430050      15.26302599       10       0.00183962      -0.00213360       0.13791712
C       11.47929300       1.47527191      15.26464381       10       0.00383527       0.00076006       0.04541385
C        9.05617273       2.87425131      15.26302599       10       0.00109394       0.00059465       0.13810495
C       10.26866484       3.57231577      15.26464381       10      -0.00054208       0.00155129       0.04554631
C        7.84512666       4.97419769      15.23137027       10      -0.00156618       0.00212753       0.10903886
C        9.05743753       5.66974997      15.24241324       10      -0.00114103       0.00022750       0.10045955
C        6.63558369       7.07421168      15.19484957       10       0.00160187       0.00317132      -0.01150818
C        7.84402079       7.77191516      15.16251586       10       0.00116280       0.00042766       0.37026907
C        5.42170714       9.17169334      15.23137027       10      -0.00106920      -0.00038176       0.10911195
C        6.63024746       9.87379576      15.24241324       10       0.00123683       0.00116145       0.10051449
O       -1.84989699       9.17107377      13.34072346       11      -0.00594255       0.00169116      -0.00033643
