131
Lattice="12.12 0.0 0.0 -6.06 10.496227893867395 0.0 0.0 0.0 40.0" Properties=species:S:1:pos:R:3:tags:I:1:forces:R:3 energy=-1202.348309842738 stress="0.0026877460640759316 -2.059371252703783e-06 4.684554925779527e-06 -2.059371252703783e-06 0.002693164813427109 7.401832845573796e-06 4.684554925779527e-06 7.401832845573796e-06 0.0031661239618463307" pbc="T T F"
C       -0.38393723       0.22222594       9.94935602        2       0.00414771      -0.00094185       0.00144409
Ti      -0.35550223       1.95733947      11.27817727        0       0.00151255       0.00662817       0.00056851
Ti       1.16742570       1.08371739       8.69834769        0       0.00850817       0.00119199      -0.00214212
O       -0.34011529       1.96557113       7.75743942        1       0.00268949      -0.00284131      -0.00095904
O        1.14101553       1.10723539      12.23159545        3       0.00398552       0.00142593      -0.18328714
C       -1.87124556       2.80060982       9.94986168        2       0.00228813       0.00315853      -0.00091278
Ti      -1.87078422       4.47595426      11.23082949        0      -0.00130989       0.00115835       0.00490552
Ti      -0.34934013       3.71218079       8.69767415        0       0.00107740       0.00282165       0.00082141
O       -1.87054262       4.60259686       7.78561838        1       0.00068340      -0.00005689       0.00401110
O       -0.34223963       3.67873181      12.23159545        3       0.00154716       0.00330282      -0.18782421
C       -3.39179579       5.45316270       9.98536440        2       0.00209097       0.00089928      -0.00027327
Ti      -3.33030080       7.23889361      11.48149966        0      -0.00171240      -0.00252328       0.00220004
Ti      -1.87031409       6.31674277       8.76965310        0      -0.00375296      -0.00137980      -0.00157750
O       -3.36595699       7.21577547       7.83861374        1       0.00284565       0.00243988      -0.00165651
O       -1.87467500       6.08007036      12.23159545        3       0.00525573      -0.00016068      -0.39633159
C       -4.90669037       8.07397736       9.98474326        2       0.00404433       0.00375563      -0.00013532
Ti      -4.99474737       9.88213140      11.22979346        0      -0.00195153      -0.00000914       0.00205740
Ti      -3.39725446       8.96026905       8.77013691        0       0.00007179       0.00021406      -0.00143485
O       -4.88165847       9.81779366       7.78638092        1       0.00206043      -0.00038527       0.00156378
O       -3.61301821       9.07752356      12.23159545        3      -0.00152952       0.00482587      -0.40257881
C        2.67540693       0.21127044       9.98897148        2      -0.00256767      -0.00088766      -0.00262805
Ti       2.66814901       1.95123236      11.29030625        0       0.00761375      -0.00200696       0.00271161
Ti       4.18868995       1.06975973       8.72254668        0      -0.00029982       0.00499545      -0.00672901
O        2.68215781       1.95158907       7.77959109        1       0.00051527       0.00301940       0.00262963
O        4.18955737       1.07723359      12.23159545        3       0.00168330       0.00062230      -0.02160281
C        1.15923388       2.83103824       9.95675721        2       0.00094255       0.00249164       0.00137171
Ti       1.15270074       4.57849066      11.28961281        0       0.00053819       0.00039113       0.00011957
Ti       2.67342699       3.70386648       8.70064458        0      -0.00056081       0.00052726      -0.00236219
O        1.16079126       4.58692167       7.77807187        1       0.00180217       0.00711266       0.00191738
O        2.67308588       3.70498223      12.23159545        3      -0.00092018       0.00013745      -0.15240063
C       -0.35055626       5.45391235       9.98688223        2      -0.00063532       0.00043304       0.00270504
Ti      -0.41207005       7.24302816      11.49180460        0      -0.00391762       0.00334521       0.00101046
Ti       1.14985735       6.33390634       8.71905651        0       0.00605894      -0.00001724       0.00255131
O       -0.37506588       7.21549761       7.83871938        1       0.00067807       0.00152845       0.00142860
O        1.15705692       6.33173883      12.23159545        3       0.00512999      -0.00163895      -0.03154228
C       -1.86914464       8.08078757      10.12307999        2       0.00201050      -0.00035325      -0.00025680
Ti      -1.86687059       9.75792056      11.49802399        0       0.00099837       0.00224235       0.00432990
Ti      -0.34371723       8.95969944       8.77021953        0      -0.00155406       0.00557318       0.00064106
O       -1.87053562       9.80581733       7.84052820        1       0.00053113      -0.00342312       0.00189296
O       -0.11662285       9.08733200      12.23159545        3       0.00228469       0.00577393      -0.41555565
C        5.70383864       0.21229767       9.98799307        2       0.00234554       0.00275839      -0.00195125
Ti       5.71005628       1.95172658      11.29167783        0      -0.00267952      -0.00357573      -0.00075803
Ti       7.20964079       1.08436702       8.69659131        0      -0.00002824      -0.00196047      -0.00050396
O        5.69472414       1.95167957       7.77949958        1       0.00406094       0.00184849      -0.00100232
O        7.23782805       1.11009677      12.23159545        3       0.00192210       0.00123218      -0.19422157
C        4.18853435       2.82969711       9.98224453        2       0.00193545      -0.00068199       0.00399197
Ti       4.18912832       4.57900012      11.29083256        0      -0.00119081       0.00415544       0.00137498
Ti       5.70436032       3.70425807       8.70047363        0      -0.00081808       0.00278787      -0.00183222
O        4.18853361       4.57755280       7.77582216        1      -0.00117761       0.00307914      -0.00185663
O        5.70588410       3.70523276      12.23159545        3      -0.00185788      -0.00040586      -0.15718312
C        2.67370746       5.45385546       9.98059105        2      -0.00210062       0.00192848       0.00317539
Ti       2.67398228       7.21001013      11.29049378        0       0.00078361       0.00108686      -0.00271115
Ti       4.18939729       6.32788541       8.69969108        0       0.00109550       0.00301302      -0.00235852
O        2.66776452       7.19717566       7.77674424        1      -0.00269422      -0.00081238       0.00324285
O        4.18943960       6.32996362      12.23159545        3       0.00161072       0.00103722      -0.16611649
C        1.16589517       8.07422780       9.98488066        2      -0.00237695       0.00199628       0.00295070
Ti       1.25899276       9.88525582      11.22543397        0       0.00043958       0.00329681       0.00639260
Ti       2.67227935       8.94220249       8.69501036        0      -0.00153417       0.00137269       0.00121470
O        1.14065288       9.81768704       7.78578111        1      -0.00051785       0.00026356       0.00293219
O        2.70973979       8.95354352      12.23159545        3      -0.00040831       0.00246535      -0.20155371
C        8.76432829       0.22386425       9.94899233        2      -0.00084329      -0.00206065      -0.00276223
Ti       8.73395405       1.95931981      11.27888262        0       0.00050488      -0.00179963       0.00015047
Ti      10.24954840       1.08119858       8.64040077        0      -0.00572437       0.00438293       0.00097629
O        8.71854939       1.96500434       7.75767991        1       0.00185893      -0.00079154      -0.00278858
O       10.24886511       1.08141935      12.23159545        3       0.00262222      -0.00022673      -0.34394366
C        7.21865281       2.83199499       9.95474669        2      -0.00108719       0.00172201       0.00031490
Ti       7.22475515       4.57871252      11.28858741        0       0.00099573       0.00481308       0.00132923
Ti       8.72682801       3.71280184       8.69640419        0       0.00124984       0.00101344      -0.00093885
O        7.21659193       4.58774813       7.77687110        1       0.00065319       0.00195365      -0.00089676
O        8.71882197       3.67908420      12.23159545        3       0.00033780       0.00103630      -0.19068188
C        5.70410107       5.45382373       9.97920188        2       0.00153945       0.00305541       0.00520583
Ti       5.70505587       7.20885561      11.28813674        0       0.00312588      -0.00020240       0.00340578
Ti       7.22877495       6.33445557       8.71761886        0      -0.00271652       0.00249225      -0.00163130
O        5.71056111       7.19732603       7.77596495        1      -0.00045985      -0.00061065       0.00279075
O        7.21897235       6.32975594      12.23159545        3       0.00059807      -0.00010007      -0.04591868
C        4.18985116       8.07651036       9.95241068        2       0.00048488       0.00097560       0.00515699
Ti       4.19098581       9.82642485      11.27950377        0      -0.00309985       0.00110407       0.00116287
Ti       5.70615094       8.94274321       8.69568086        0       0.00453945      -0.00565379      -0.00299474
O        4.18909755       9.81112568       7.75708567        1       0.00145448      -0.00178316      -0.00495585
O        5.67146890       8.95232845      12.23159545        3      -0.00125903       0.00393178      -0.19699439
C        0.60339242      -0.25527268      15.11711524       10      -0.00378815      -0.00619438       0.10106870
C        1.81283156       0.44517025      15.10182319       10       0.00116469      -0.00055875       0.04405734
C       -0.60941171       1.84484066      15.12243594       10      -0.00293687       0.00085828       0.11176716
C        0.60412824       2.54510784      15.10472551       10      -0.00018166       0.00196117       0.06408436
C       -1.82198740       3.94512544      15.11711524       10      -0.00367429       0.00070398       0.10157988
C       -0.61014473       4.64194509      15.10182319       10      -0.00107548      -0.00083785       0.05058956
C       -3.02904886       6.04447021      15.05400449       10      -0.00538592      -0.00024036       0.18741988
C       -1.82208871       6.72720005      15.01218227       10      -0.00123295      -0.00436044      -0.72436015
C       -4.24149330       8.14553226      15.05400449       10      -0.00725593      -0.00119502       0.18553553
C       -3.04607063       8.84883899      15.01218227       10       0.00429673       0.00031323      -0.77959955
C        3.02557416      -0.26039044      15.05400449       10      -0.00209183      -0.00588443       0.18590526
C        4.23799446       0.44863515      15.02192581       10      -0.00388542      -0.00109716       0.04251010
C        1.81497647       1.84447129      15.09078022       10      -0.00123649      -0.00132677       0.08931329
C        3.02720180       2.54436880      15.06886581       10      -0.00111219      -0.00282119       0.11982428
C        0.60263367       3.94421171      15.09078022       10      -0.00226917       0.00232355       0.09195458
C        1.81468446       4.64475875      15.06886581       10      -0.00188491      -0.00144993       0.12710679
C       -0.61508544       6.04476533      15.05400449       10      -0.00064131      -0.00351122       0.18944119
C        0.60523300       6.74118930      15.02192581       10       0.00115085      -0.00384417       0.04611671
C       -1.82472454       8.13910091      14.55937661       10       0.00084995      -0.00194077       1.33174081
C       -0.60122117       8.84703036      15.01218227       10       0.00007965       0.00250855      -0.86411672
C        5.44897248      -0.26143414      15.05400449       10      -0.00032096      -0.00046687       0.18371867
C        6.66204080       0.44443984      15.10182319       10       0.00231208      -0.00270255       0.03736742
C        4.23820051       1.84295162      15.05425952       10      -0.00036636      -0.00157206       0.06399400
C        5.44936950       2.54413430      15.06886581       10      -0.00025205      -0.00192124       0.12174551
C        3.02710445       3.94467861      15.06618420       10      -0.00377298      -0.00241774       0.02619389
C        4.23841989       4.64418931      15.06118343       10      -0.00404835      -0.00154257       0.18147055
C        1.81276183       6.04442175      15.05425952       10       0.00132095      -0.00289463       0.06197412
C        3.02564758       6.74310210      15.06886581       10      -0.00170960      -0.00177422       0.13073279
C        0.59593894       8.14504995      15.05400449       10      -0.00077933      -0.00240258       0.18379637
C        1.81378363       8.84280481      15.10182319       10      -0.00311439       0.00075082       0.04475505
C        7.87159079      -0.25570117      15.11711524       10       0.00410891      -0.00280695       0.09841415
C        9.08547139       0.44509353      15.12405376       10       0.00294503      -0.00029593       0.05230314
C        6.66092301       1.84394904      15.09078022       10      -0.00112354      -0.00389830       0.07945350
C        7.87160209       2.54481686      15.10472551       10      -0.00278107      -0.00298040       0.07714124
C        5.44938615       3.94459464      15.06618420       10      -0.00073977      -0.00043021       0.01976089
C        6.66157899       4.64441976      15.06886581       10       0.00272672      -0.00336992       0.14062162
C        4.23823319       6.04276058      15.06618420       10      -0.00124586      -0.00016029       0.01967430
C        5.45035829       6.74294691      15.06886581       10      -0.00027623      -0.00073342       0.14250280
C        3.02527062       8.14241567      15.09078022       10      -0.00632812      -0.00331832       0.07602711
C        4.23764927       8.84038345      15.10472551       10      -0.00650094      -0.00230229       0.08625767
C       10.29758621      -0.25477972      15.12243594       10      -0.00258687      -0.00831367       0.11157124
C       11.50940009       0.44540555      15.12405376       10       0.00672040      -0.00353484       0.05028691
C        9.08523228       1.84466808      15.12243594       10      -0.00370127      -0.00116691       0.11094177
C       10.29791870       2.54369748      15.12405376       10      -0.00202174      -0.00138798       0.05043028
C        7.87341315       3.94399106      15.09078022       10       0.00141912      -0.00376217       0.08650201
C        9.08575179       4.64187467      15.10182319       10       0.00124167      -0.00156972       0.05966154
C        6.66321159       6.04416275      15.05425952       10      -0.00071344      -0.00235063       0.06137466
C        7.87045361       6.74084743      15.02192581       10      -0.00221057      -0.00125246       0.05191248
C        5.45023259       8.14242489      15.09078022       10      -0.00509259      -0.00247317       0.08056360
C        6.66098852       8.84284665      15.10182319       10       0.00258205       0.00084497       0.06022019
O       -1.85001395       8.10712413      13.14058437       11       0.00095231      -0.00272754      -0.00121157
