131
Lattice="12.12 0.0 0.0 -6.06 10.496227893867395 0.0 0.0 0.0 40.0" Properties=species:S:1:pos:R:3:tags:I:1:forces:R:3 energy=-1205.2811089169486 stress="0.002827970284438622 -3.392991614971912e-07 -9.338872434920104e-07 -3.392991614971912e-07 0.002833170505397884 3.1832072725866755e-07 -9.338872434920104e-07 3.1832072725866755e-07 0.002403356240126268" pbc="T T F"
C       -0.34061242       0.09938503       9.99826390        2       0.00248484      -0.00076825       0.00368548
Ti      -0.33941534       1.84721892      11.30495388        0       0.00323610       0.00277244       0.00238102
Ti       1.18100362       0.97213538       8.70022593        0       0.00138990      -0.00305148       0.00178162
O       -0.33120464       1.84806172       7.76835242        1      -0.00256172      -0.00190734      -0.00302483
O        1.17273917       0.97527982      12.23159545        3       0.00124232      -0.00057967       0.00012686
C       -1.85056870       2.71849709       9.99752850        2       0.00117882       0.00062282       0.00275797
Ti      -1.85073236       4.46008259      11.30820718        0       0.00188132      -0.00438375       0.00164727
Ti      -0.33432516       3.59782269       8.69584359        0       0.00125495       0.00191323       0.00612824
O       -1.85000147       4.47647932       7.77541777        1      -0.00108231      -0.00162509      -0.00292383
O       -0.33651426       3.59137803      12.23159545        3       0.00165690       0.00292192       0.00557574
C       -3.36610118       5.34340517      10.00631636        2       0.00006365      -0.00069501       0.00229831
Ti      -3.36050950       7.09951403      11.34709922        0       0.00299033       0.00113303       0.00193593
Ti      -1.85041869       6.21845468       8.70983065        0      -0.00168505       0.00232623       0.00029563
O       -3.36201350       7.09833799       7.78684237        1      -0.00056370      -0.00063868       0.00262268
O       -1.85098926       6.20274028      12.23159545        3      -0.00097518       0.00118556      -0.04872077
C       -4.88390944       7.96902910      10.00821793        2      -0.00178612       0.00143881       0.00305239
Ti      -4.89234009       9.72448578      11.31197908        0       0.00042246       0.00042488      -0.00000439
Ti      -3.36703584       8.84516607       8.71547842        0      -0.00002696       0.00039512      -0.00493635
O       -4.87503347       9.71672166       7.77926938        1      -0.00343851       0.00154501      -0.00083852
O       -3.38502185       8.84982745      12.23159545        3       0.00431095       0.00050355      -0.09777077
C        2.69274924       0.09862877      10.01357438        2      -0.00231372       0.00165776       0.00162439
Ti       2.69029768       1.84512891      11.32096963        0      -0.00023649       0.00131615      -0.00173335
Ti       4.20971410       0.97179288       8.70877249        0      -0.00051389      -0.00502909       0.00204298
O        2.69710764       1.84472339       7.77819160        1       0.00128276      -0.00237592      -0.00290060
O        4.20958011       0.97787649      12.23159545        3      -0.00172890      -0.00400359       0.03153923
C        1.17804049       2.72184548      10.00314308        2       0.00219878       0.00157919      -0.00252854
Ti       1.17749631       4.46955829      11.31535400        0      -0.00380872      -0.00283465      -0.00059508
Ti       2.69512288       3.59567587       8.69774337        0      -0.00088944       0.00086014       0.00211975
O        1.18102816       4.47290834       7.77439656        1      -0.00267684      -0.00030372      -0.00185498
O        2.69257421       3.59596930      12.23159545        3       0.00013866      -0.00120735      -0.00988085
C       -0.33524228       5.34378224      10.00679172        2       0.00171933      -0.00110528       0.00093467
Ti      -0.34252735       7.09997648      11.34779011        0       0.00526459      -0.00320629      -0.00167302
Ti       1.17771475       6.22092322       8.70239289        0      -0.00219535       0.00068570       0.00769916
O       -0.33868925       7.09824153       7.78708414        1      -0.00157082       0.00067583      -0.00002357
O        1.18026176       6.21810865      12.23159545        3      -0.00245108      -0.00035303      -0.00266169
C       -1.85094759       7.96988738      10.03335380        2       0.00209629      -0.00094641       0.00250699
Ti      -1.85124943       9.70673024      11.36619095        0      -0.00120209      -0.00056079      -0.00114700
Ti      -0.33343987       8.84556912       8.71448451        0      -0.00326315      -0.00007707       0.00099861
O       -1.85053698       9.71634109       7.79249252        1      -0.00031451      -0.00039001       0.00147735
O       -0.31740092       8.85014019      12.23159545        3      -0.00034963       0.00038332      -0.09730968
C        5.72620482       0.09864983      10.01294693        2       0.00101647       0.00043606       0.00124540
Ti       5.72822258       1.84461372      11.32014696        0       0.00147998       0.00407197       0.00012536
Ti       7.23877888       0.97217594       8.69874443        0      -0.00170547      -0.00035976       0.00724704
O        5.72191951       1.84445701       7.77746943        1      -0.00107934      -0.00136750      -0.00265671
O        7.24554135       0.97502415      12.23159545        3       0.00104771       0.00015827      -0.00280267
C        4.20984730       2.72245832      10.00631684        2      -0.00169074       0.00150160       0.00003871
Ti       4.20997217       4.46965203      11.31276553        0       0.00017572      -0.00178176      -0.00023130
Ti       5.72460073       3.59559150       8.69704159        0      -0.00225695       0.00024088       0.00373042
O        4.20946498       4.46982598       7.77172431        1       0.00134533      -0.00109424      -0.00023236
O        5.72702862       3.59519541      12.23159545        3      -0.00276398       0.00191117      -0.01413589
C        2.69547279       5.34437981      10.00402809        2      -0.00022805       0.00001334       0.00183876
Ti       2.69551435       7.09607145      11.31400245        0       0.00089957       0.00326498       0.00091621
Ti       4.20970315       6.21926243       8.69510704        0      -0.00186557       0.00012799       0.00108968
O        2.69280333       7.09298052       7.77384456        1      -0.00126068       0.00236803      -0.00052459
O        4.20927941       6.21960478      12.23159545        3       0.00018074       0.00018864       0.00581406
C        1.18250647       7.96975438      10.00783528        2       0.00137667      -0.00163879       0.00276003
Ti       1.18994506       9.72434944      11.31093615        0       0.00592720       0.00016263       0.00161473
Ti       2.69362182       8.84286215       8.69558802        0      -0.00130092      -0.00212671       0.00811269
O        1.17442957       9.71666356       7.77819109        1       0.00106827       0.00094885      -0.00157631
O        2.69920097       8.84624975      12.23159545        3      -0.00385653      -0.00337347      -0.01842848
C        8.75918520       0.09951729       9.99797410        2      -0.00062995      -0.00206744       0.00280414
Ti       8.75717259       1.84701075      11.30467332        0       0.00049346       0.00018903       0.00074262
Ti      10.27035898       0.97138359       8.68229790        0      -0.00387508       0.00224794       0.00666000
O        8.75119256       1.84760744       7.76773903        1       0.00224334      -0.00033378      -0.00251553
O       10.26912068       0.97343354      12.23159545        3      -0.00042862      -0.00033127      -0.01322999
C        7.24145631       2.72137896      10.00198379        2      -0.00343734       0.00201846       0.00077542
Ti       7.24198179       4.46882683      11.31463937        0      -0.00415225      -0.00144428       0.00020410
Ti       8.75403470       3.59759724       8.69490732        0      -0.00156590       0.00104426       0.00730538
O        7.23857454       4.47257533       7.77379275        1       0.00099248       0.00190204      -0.00275410
O        8.75490750       3.59142738      12.23159545        3       0.00271314      -0.00142473       0.00594892
C        5.72380568       5.34384895      10.00374748        2      -0.00262163       0.00150490       0.00083756
Ti       5.72290174       7.09588108      11.31431812        0      -0.00032105       0.00021210      -0.00075214
Ti       7.24152571       6.22055911       8.70275407        0       0.00388642       0.00262831       0.00336073
O        5.72623983       7.09318959       7.77407740        1       0.00233463       0.00024298      -0.00193040
O        7.23797326       6.21697048      12.23159545        3       0.00268948       0.00339698      -0.00198359
C        4.20931562       7.96908824      10.00148961        2       0.00032428      -0.00349169      -0.00141286
Ti       4.20893304       9.72166713      11.30422994        0      -0.00119460      -0.00356870       0.00302725
Ti       5.72561027       8.84253497       8.69603199        0       0.00320320       0.00057303       0.00458171
O        4.20967628       9.71505018       7.76697336        1       0.00041240       0.00177293      -0.00141802
O        5.71905839       8.84565311      12.23159545        3       0.00248357       0.00008611      -0.01600598
C        0.56700308      -0.08193919      16.53816787       10       0.00914177       0.00378299       0.01903867
C        1.77431977       0.61874297      16.52287582       10       0.00108759      -0.00463060       0.01933019
C       -0.64330093       2.01536363      16.54348857       10       0.00274676      -0.00287365       0.02003563
C        0.56825266       2.71481712      16.52577814       10      -0.00142164      -0.00088160       0.01144794
C       -1.85423752       4.11241812      16.53816787       10       0.00202444      -0.00459939       0.02438885
C       -0.64386261       4.80764610      16.52287582       10      -0.00348852      -0.00018182       0.01737729
C       -3.06033476       6.21474212      16.47505712       10       0.00179070      -0.00398847       0.06408444
C       -1.85417786       6.89517524      16.43323490       10      -0.00221098       0.00145210      -0.21455608
C       -4.27474905       8.31794946      16.47505712       10       0.00628118      -0.00124097       0.07384873
C       -3.08243278       9.02211336      16.43323490       10      -0.00317084      -0.00726294      -0.21683880
C        2.99104350      -0.08894296      16.47505712       10       0.00519490      -0.00004153       0.07868706
C        4.20555233       0.61644700      16.44297844       10       0.00256896       0.00374100      -0.04601554
C        1.78043743       2.01593901      16.51183285       10      -0.00119857      -0.00155501       0.01033485
C        2.99213839       2.71497100      16.48991844       10      -0.00430718       0.00040274       0.00816230
C        0.56925893       4.11378609      16.51183285       10      -0.00125165       0.00047496       0.01034732
C        1.77937661       4.81368590      16.48991844       10      -0.00041990      -0.00009210       0.00801276
C       -0.64804203       6.21446129      16.47505712       10      -0.00171580       0.00158907       0.06312929
C        0.57037759       6.91297332      16.44297844       10       0.00147687      -0.00284087      -0.02499706
C       -1.85435003       8.31343041      15.98042924       10       0.00304075       0.00052894       0.09994668
C       -0.62640547       9.02189703      16.43323490       10       0.00433225      -0.00132508      -0.21339315
C        5.41994417      -0.08913936      16.47505712       10      -0.00002381       0.00172901       0.08047016
C        6.63685726       0.61835521      16.52287582       10      -0.00120554       0.00009362       0.01929383
C        4.20586135       2.01146706      16.47531215       10      -0.00217055       0.00482112      -0.00665888
C        5.41968350       2.71482000      16.48991844       10       0.00064003       0.00083439       0.00802872
C        2.99372154       4.11443502      16.48723683       10      -0.00232750      -0.00025856      -0.00978238
C        4.20601601       4.81471779      16.48223606       10      -0.00155837      -0.00077631       0.01145664
C        1.77834907       6.21562929      16.47531215       10       0.00170749      -0.00040463      -0.01961212
C        2.99355338       6.91530000      16.48991844       10       0.00071791       0.00149194       0.02628828
C        0.56586680       8.31778802      16.47505712       10       0.00323691      -0.00152178       0.07520051
C        1.78734769       9.01727205      16.52287582       10       0.00102890       0.00184347       0.02336280
C        7.84402856      -0.08226375      16.53816787       10      -0.00142540       0.00378040       0.01891691
C        9.05652631       0.61778680      16.54510639       10       0.00008259       0.00158032       0.02315815
C        6.63113568       2.01568967      16.51183285       10       0.00043776      -0.00079606       0.01029175
C        7.84326725       2.71471621      16.52577814       10       0.00031280      -0.00154051       0.01160197
C        5.41823014       4.11432670      16.48723683       10      -0.00010050       0.00060665      -0.00969537
C        6.63248941       4.81359970      16.48991844       10      -0.00153621       0.00165764       0.00769628
C        4.20591459       6.21390319      16.48723683       10      -0.00104278       0.00017106      -0.00915440
C        5.41812125       6.91541400      16.48991844       10      -0.00143712      -0.00001737       0.02610410
C        2.99414797       8.31399663      16.51183285       10      -0.00116350       0.00214055       0.00698402
C        4.20569094       9.01465242      16.52577814       10      -0.00043216      -0.00110165       0.01523281
C       10.26551815      -0.08270473      16.54348857       10       0.00499675       0.00511853       0.00939148
C       11.47467884       0.61800541      16.54510639       10      -0.00574089       0.00085313       0.02317393
C        9.05450671       2.01507316      16.54348857       10       0.00305128       0.00277137       0.02017739
C       10.26560072       2.71229833      16.54510639       10       0.00091536       0.00050218       0.02408476
C        7.84259307       4.11380375      16.51183285       10      -0.00125169      -0.00064961       0.01071720
C        9.05568166       4.80784552      16.52287582       10      -0.00255088      -0.00237605       0.01755983
C        6.63327769       6.21558529      16.47531215       10      -0.00069182       0.00116114      -0.01929374
C        7.84110583       6.91304248      16.44297844       10      -0.00146987      -0.00030517      -0.02516565
C        5.41732346       8.31413626      16.51183285       10       0.00126526       0.00224780       0.00698858
C        6.62404573       9.01757683      16.52287582       10      -0.00738705      -0.00091618       0.02325148
O       -1.85268378       8.30846000      14.65731675       11      -0.00461668      -0.00030583      -0.00533488
