131
Lattice="12.12 0.0 0.0 -6.06 10.496227893867395 0.0 0.0 0.0 40.0" Properties=species:S:1:pos:R:3:tags:I:1:forces:R:3 energy=-1204.0118295146303 stress="0.002686647999343446 8.31728509138258e-08 -6.547037924034418e-07 8.31728509138258e-08 0.0026861429138344477 5.994626626573572e-07 -6.547037924034418e-07 5.994626626573572e-07 0.002974671510989238" pbc="T T F"
C       -0.34743915      -0.44803118       9.99337443        2       0.00275905       0.00151659      -0.00193423
Ti      -0.34543837       1.30384162      11.28570601        0      -0.00315860      -0.00443096      -0.00556516
Ti       1.17329563       0.42738126       8.71139914        0      -0.00489560       0.00029578      -0.00243396
O       -0.32841270       1.29338542       7.76617749        1      -0.00075275       0.00095941      -0.00228926
O        1.15534681       0.43833219      12.23008024        3       0.00113434      -0.00534320      -0.20075530
C       -1.85289332       2.17343903       9.98955249        2       0.00361657       0.00233070       0.00256569
Ti      -1.85285186       3.91429738      11.28551339        0      -0.00180040       0.00066744      -0.00278193
Ti      -0.33458548       3.04988543       8.70254417        0      -0.00188996      -0.00120042      -0.00295928
O       -1.85275634       3.93317793       7.76616890        1      -0.00014576       0.00302716      -0.00182796
O       -0.34097338       3.04601752      12.23008024        3      -0.00219271       0.00559106      -0.32239061
C       -3.37052843       4.78811114       9.99367221        2       0.00247244       0.00407823       0.00007595
Ti      -3.36653187       6.53286728      11.28598716        0       0.00039926      -0.00159182      -0.00373780
Ti      -1.85239296       5.66633470       8.71142770        0       0.00005574       0.00202716      -0.00150122
O       -3.35444762       6.56207992       7.78917943        1      -0.00332336       0.00108090      -0.00419978
O       -1.85184841       5.64694868      12.23008024        3      -0.00514740       0.00146367      -0.20077583
C       -4.89607321       7.41441812       9.98716858        2      -0.00041037      -0.00085158       0.00131093
Ti      -4.89502556       9.18047917      11.28501072        0      -0.00096573      -0.00417270      -0.00123833
Ti      -3.36149098       8.29973059       8.76527253        0       0.00033809       0.00323029      -0.00268565
O       -4.86304848       9.17492935       7.78871284        1      -0.00050081      -0.00101881      -0.00094638
O       -3.55320250       8.19017414      12.23008024        3      -0.00465619      -0.00360678      -0.37808899
C        2.70046659      -0.45425166      10.07385323        2       0.00047194       0.00029446       0.00066611
Ti       2.67889737       1.30722281      11.28468009        0      -0.00107168       0.00130307      -0.00174438
Ti       4.20746901       0.41802033       8.76502909        0       0.00042744       0.00189613      -0.00236521
O        2.69908402       1.28086560       7.78820336        1       0.00130983       0.00222590       0.00122996
O        4.20642222       0.64071337      12.23008024        3       0.00406403       0.00100760      -0.37659050
C        1.17062454       2.18156830       9.99263195        2      -0.00140288      -0.00268756       0.00333982
Ti       1.17760761       3.92373035      11.29566535        0       0.00429274       0.00311885      -0.00017299
Ti       2.69514237       3.04780317       8.70073959        0       0.00222975      -0.00600988       0.00302458
O        1.17854167       3.92390543       7.76103650        1      -0.00045247       0.00146606      -0.00470544
O        2.68588669       3.08131339      12.23008024        3       0.00569798      -0.00720379      -0.32073663
C       -0.33437403       4.78809629       9.99256361        2      -0.00536650       0.00077165       0.00625206
Ti      -0.33792060       6.53259825      11.28459877        0      -0.00254356      -0.00178828       0.00090591
Ti       1.17759471       5.67547093       8.70133671        0      -0.00349702       0.00393265      -0.00152511
O       -0.35082869       6.56258748       7.78858921        1       0.00379609      -0.00345127      -0.00134469
O        1.20213552       5.65135792      12.23008024        3      -0.00505549       0.00572180      -0.32065119
C       -1.85260604       7.43080523      10.07395228        2       0.00060427       0.00601790      -0.00047796
Ti      -1.85248625       9.17274753      11.60712434        0       0.00064033      -0.00757569      -0.00437599
Ti      -0.34385026       8.29987592       8.76477629        0       0.00115419       0.00032210      -0.00093649
O       -1.85244445       9.17169962       7.82800877        1      -0.00247065      -0.00020702      -0.00625078
O       -0.15136812       8.18840343      12.23008024        3       0.00568188       0.00297329      -0.38128895
C        5.71375095      -0.45451241      10.07440692        2       0.00144170       0.00166648       0.00226100
Ti       5.73518003       1.30764615      11.28572461        0       0.00095744      -0.00454892      -0.00633026
Ti       7.24160410       0.42726160       8.71209768        0       0.00452498       0.00156232      -0.00087052
O        5.71639582       1.28119140       7.78902715        1      -0.00645318       0.00041950      -0.00077960
O        7.25903138       0.43777211      12.23008024        3      -0.00303935      -0.00315621      -0.19435080
C        4.20721446       2.19093603       9.98673914        2      -0.00043347      -0.00418602       0.00119235
Ti       4.20636410       3.92898221      11.28657907        0       0.00507925      -0.00271286      -0.00105389
Ti       5.72002267       3.04779984       8.70182403        0      -0.00125720      -0.00332564      -0.00019058
O        4.20776482       3.92295331       7.75659171        1      -0.00065403       0.00155801      -0.00273676
O        5.72729755       3.08096708      12.23008024        3       0.00087298      -0.00216170      -0.31557661
C        2.69442086       4.79963557       9.98833986        2       0.00094732      -0.00066791       0.00278406
Ti       2.69591232       6.54462862      11.28697471        0       0.00008033       0.00541115      -0.00018165
Ti       4.20750229       5.67336250       8.69517261        0       0.00405918       0.00046533       0.00568856
O        2.69148238       6.54823881       7.75668644        1       0.00273130      -0.00296737      -0.00193674
O        4.20686280       5.67370384      12.23008024        3       0.00407991      -0.00444267      -0.29549159
C        1.19098615       7.41406263       9.98670918        2      -0.00064080      -0.00114083       0.00231904
Ti       1.18946588       9.17992993      11.28552681        0       0.00172004      -0.00444493      -0.00294934
Ti       2.68912870       8.29515766       8.70239226        0       0.00350613       0.00305520      -0.00430795
O        1.15757481       9.17534561       7.78914365        1       0.00219547      -0.00311637      -0.00181540
O        2.72187396       8.28578406      12.23008024        3       0.00155909       0.00035821      -0.31626659
C        8.76176621      -0.44816806       9.99380955        2       0.00079476       0.00124092      -0.00104604
Ti       8.76034551       1.30338366      11.28668255        0      -0.00306854       0.00290673      -0.00886365
Ti      10.26768662       0.42062425       8.70251348        0      -0.00520079       0.00316560       0.00107097
O        8.74270025       1.29353780       7.76677253        1       0.00317601      -0.00002072      -0.00240220
O       10.26719737       0.42830340      12.23008024        3       0.00215531       0.00082225      -0.31918300
C        7.24386935       2.18139807       9.99393408        2       0.00033377       0.00065028      -0.00229653
Ti       7.23593726       3.92427821      11.29626682        0       0.00219150       0.00064602      -0.00106925
Ti       8.74951878       3.04962639       8.70304556        0      -0.00060947       0.00080122      -0.00210395
O        7.23671922       3.92357878       7.76188745        1      -0.00263708       0.00614945      -0.00255891
O        8.75550071       3.04655475      12.23008024        3       0.00297006       0.00175737      -0.31876095
C        5.72007178       4.80005439       9.98897705        2       0.00193611      -0.00296815       0.00220817
Ti       5.71865876       6.54601737      11.28701146        0      -0.00153145      -0.00702469      -0.00246013
Ti       7.23796919       5.67587173       8.70230140        0      -0.00440469      -0.00411633      -0.00280422
O        5.72413949       6.54827148       7.75690206        1      -0.00707479      -0.00376453      -0.00135277
O        7.21323401       5.65233738      12.23008024        3      -0.00096243       0.00316652      -0.31503675
C        4.20742140       7.41957315       9.98890452        2      -0.00011683       0.00167947       0.00380858
Ti       4.20694515       9.16928432      11.29627079        0       0.00054872       0.00692557      -0.00227161
Ti       5.72537547       8.29546042       8.70147455        0      -0.00317370       0.00015304       0.00008871
O        4.20684176       9.16963568       7.76170037        1       0.00462879       0.00220952      -0.00243128
O        5.69254482       8.28644775      12.23008024        3       0.00099629      -0.00116203      -0.31531343
C        0.57166748       0.77517551      15.39981056       10       0.00385422      -0.00346074       0.14419485
C        1.78203096       1.47495862      15.38451851       10       0.00083534       0.00120190       0.10398381
C       -0.63846081       2.87388994      15.40513126       10      -0.00174043      -0.00081193       0.10412774
C        0.57330580       3.57356387      15.38742083       10      -0.00305589      -0.00091743       0.08728981
C       -1.85095131       4.97148892      15.39981056       10       0.00127784       0.00087953       0.14430088
C       -0.63985713       5.66985507      15.38451851       10       0.00266464       0.00034053       0.10395963
C       -3.05778225       7.07594179      15.33669981       10      -0.00652680       0.00050777       0.10530872
C       -1.85082700       7.75739093      15.29487759       10      -0.00063765      -0.00172361      -0.34113974
C       -4.26916117       9.17389533      15.33669981       10      -0.00249231       0.00119458       0.10576142
C       -3.07575080       9.87886709      15.29487759       10       0.00331830      -0.00229155      -0.34060510
C        2.99795171       0.76870239      15.33669981       10      -0.00477677      -0.00518494       0.10548717
C        4.20929431       1.47467490      15.30462113       10      -0.00589945      -0.00321954       0.32984753
C        1.78557868       2.87278097      15.37347554       10       0.00115736       0.00373831       0.08178513
C        2.99690278       3.57253206      15.35156113       10       0.00218920      -0.00194991       0.08714629
C        0.57246326       4.97386549      15.37347554       10       0.00121988       0.00006273       0.08185586
C        1.78403325       5.67311955      15.35156113       10       0.00015506       0.00053858       0.08701934
C       -0.64374835       7.07605756      15.33669981       10      -0.00360020      -0.00262352       0.10535026
C        0.57321821       7.77208938      15.30462113       10      -0.00080140      -0.00456538       0.32964320
C       -1.85107130       9.17163499      14.84207193       10       0.00618315       0.00219710       1.14367578
C       -0.62621195       9.87871467      15.29487759       10       0.00465510       0.00271930      -0.33846867
C        5.42049950       0.76854183      15.33669981       10      -0.00304434       0.00210728       0.10499996
C        6.63613031       1.47519906      15.38451851       10      -0.00052799      -0.00177950       0.10383299
C        4.20911990       2.87035942      15.33695484       10      -0.00014317      -0.00098447      -0.00050442
C        5.42117663       3.57267348      15.35156113       10       0.00208051      -0.00158899       0.08741784
C        2.99648567       4.97269784      15.34887952       10       0.00071443      -0.00044258       0.10177417
C        4.20897216       5.67252380      15.34387875       10      -0.00064556       0.00390434       0.10190196
C        1.78176371       7.07397017      15.33695484       10       0.00310621      -0.00060199      -0.00071204
C        2.99610993       7.77223642      15.35156113       10       0.00290114       0.00274206       0.08728523
C        0.56744040       9.17405041      15.33669981       10      -0.00003764      -0.00115900       0.10506034
C        1.78728634       9.87342884      15.38451851       10      -0.00065750      -0.00186161       0.10386934
C        7.84628059       0.77524523      15.39981056       10       0.00239356      -0.00195795       0.14422616
C        9.05815419       1.47470411      15.40674908       10       0.00277889       0.00345736       0.05641008
C        6.63263853       2.87311982      15.37347554       10      -0.00091043      -0.00302065       0.08164498
C        7.84502906       3.57383993      15.38742083       10      -0.00308505      -0.00387061       0.08771488
C        5.42148668       4.97276958      15.34887952       10      -0.00158737       0.00168717       0.10194063
C        6.63385796       5.67325475      15.35156113       10       0.00353373      -0.00194349       0.08729372
C        4.20891674       7.07245447      15.34887952       10       0.00288332       0.00220808       0.10179625
C        5.42177707       7.77227426      15.35156113       10       0.00241125       0.00098898       0.08713657
C        2.99608153       9.17112513      15.37347554       10      -0.00240211       0.00405496       0.08179023
C        4.20922219       9.87051737      15.38742083       10      -0.00416689       0.00527925       0.08761076
C       10.26895732       0.77358590      15.40513126       10       0.00144031       0.00419477       0.10418400
C       11.47969954       1.47474455      15.40674908       10       0.00687881      -0.00106678       0.05653607
C        9.05671721       2.87389556      15.40513126       10      -0.00147297       0.00197057       0.10414462
C       10.26915410       3.57209728      15.40674908       10      -0.00188493       0.00191186       0.05663227
C        7.84555430       4.97415755      15.37347554       10       0.00135922      -0.00508199       0.08172100
C        9.05798735       5.66986213      15.38451851       10      -0.00065411       0.00007769       0.10371760
C        6.63616971       7.07402575      15.33695484       10       0.00289609      -0.00007885      -0.00074180
C        7.84506790       7.77184761      15.30462113       10      -0.00268698       0.00212236       0.32986482
C        5.42231016       9.17111732      15.37347554       10      -0.00524641       0.00270071       0.08183975
C        6.63103388       9.87331184      15.38451851       10      -0.00238935       0.00056091       0.10398980
O       -1.85067977       9.17203873      13.47807157       11      -0.00348863       0.00181593      -0.00162318
