131
Lattice="12.12 0.0 0.0 -6.06 10.496227893867395 0.0 0.0 0.0 40.0" Properties=species:S:1:pos:R:3:tags:I:1:forces:R:3 energy=-1204.8245501320362 stress="0.0028297018644769896 -1.584497561729701e-07 -6.021946627461714e-07 -1.584497561729701e-07 0.0028291125682875728 5.826251811945171e-07 -6.021946627461714e-07 5.826251811945171e-07 0.00289472101723538" pbc="T T F"
C       -0.35069769      -0.44926757       9.96875647        2       0.00171492       0.00061224      -0.00188399
Ti      -0.34045437       1.30108786      11.30422707        0       0.00023736      -0.00552456      -0.00033539
Ti       1.18087272       0.42305817       8.70804363        0       0.00014871      -0.00121980       0.00244642
O       -0.32360366       1.29101360       7.76926791        1      -0.00169540       0.00182649       0.00349185
O        1.16227354       0.43387147      12.23159545        3       0.00072549       0.00004438      -0.14098781
C       -1.85297668       2.17368851       9.96328427        2      -0.00313970       0.00355536       0.00044550
Ti      -1.85378277       3.92124561      11.30442457        0      -0.00229736       0.00429181      -0.00180028
Ti      -0.33775842       3.04853765       8.68095869        0      -0.00150805       0.00176983      -0.00110906
O       -1.85330883       3.93989681       7.76967747        1       0.00059120      -0.00020045       0.00188436
O       -0.33707003       3.05041347      12.23159545        3       0.00312530      -0.00097672      -0.15192238
C       -3.37416173       4.78789371       9.96872230        2       0.00048286       0.00100459      -0.00025429
Ti      -3.37253309       6.51627014      11.27012828        0       0.00356332      -0.00034398      -0.00030545
Ti      -1.85412761       5.67640942       8.70897199        0       0.00168387       0.00157532      -0.00025181
O       -3.35730772       6.56198171       7.78140438        1       0.00205639      -0.00073853       0.00240816
O       -1.85410804       5.65625580      12.23159545        3       0.00172051       0.00124793      -0.13852502
C       -4.90872509       7.40856966       9.95383145        2       0.00246805      -0.00234558      -0.00338779
Ti      -4.91282363       9.18581535      11.27038074        0      -0.00243959       0.00031532       0.00015514
Ti      -3.37997097       8.29010396       8.73641690        0      -0.00109427       0.00333351       0.00172968
O       -4.86585351       9.17476378       7.78230696        1       0.00282131      -0.00098354      -0.00247822
O       -3.53286828       8.20297360      12.23159545        3      -0.00057792      -0.00146974      -0.30847486
C        2.69799586      -0.45286631      10.03518729        2      -0.00007322      -0.00089758       0.00234044
Ti       2.66515046       1.32016729      11.26939344        0       0.00106211      -0.00477877       0.00384836
Ti       4.20703339       0.43769829       8.73619096        0      -0.00391229       0.00013716       0.00399389
O        2.69843482       1.28250086       7.78118238        1       0.00084980       0.00208048       0.00146358
O        4.20560061       0.61603160      12.23159545        3       0.00245292       0.00489083      -0.31180532
C        1.17082823       2.18514318       9.96825216        2      -0.00141020      -0.00027624      -0.00005125
Ti       1.18316217       3.92770095      11.29771344        0       0.00175268      -0.00048230      -0.00091308
Ti       2.69463490       3.05242113       8.67161541        0      -0.00047122      -0.00443135       0.00191747
O        1.17413104       3.92209421       7.75418104        1      -0.00103193       0.00067185       0.00238343
O        2.69173402       3.07590472      12.23159545        3      -0.00210905      -0.00096908      -0.19234721
C       -0.33263194       4.78821332       9.96836600        2      -0.00078007      -0.00346554       0.00065116
Ti      -0.33538981       6.51443571      11.27031915        0       0.00093045       0.00213006      -0.00124134
Ti       1.18001015       5.67407812       8.67161236        0      -0.00226971      -0.00028160       0.00390362
O       -0.35083239       6.56180870       7.78198341        1       0.00227756       0.00038570      -0.00276413
O        1.19919517       5.65987262      12.23159545        3      -0.00237463      -0.00128886      -0.18942805
C       -1.85400512       7.43045221      10.03604679        2       0.00161959      -0.00148252      -0.00012627
Ti      -1.85244249       9.17232818      11.88841164        0      -0.00488806      -0.00315132       0.00383452
Ti      -0.32804869       8.29015052       8.73683216        0       0.00331427       0.00143938       0.00433377
O       -1.85360512       9.17142430       7.86369374        1      -0.00060444       0.00155165       0.00138169
O       -0.17307826       8.20032735      12.23159545        3       0.00344260       0.00041369      -0.31100247
C        5.71303674      -0.45434075      10.03736456        2       0.00458669      -0.00021092      -0.00396851
Ti       5.74710979       1.31886869      11.27051397        0      -0.00295108       0.00125468      -0.00266449
Ti       7.23403866       0.42267489       8.70833233        0      -0.00296554       0.00063542       0.00412044
O        5.71558878       1.28162625       7.78179646        1      -0.00089218       0.00395325       0.00122371
O        7.24980635       0.43268175      12.23159545        3       0.00335464       0.00094256      -0.13448716
C        4.20660026       2.20376420       9.95278361        2       0.00154019      -0.00202461      -0.00225218
Ti       4.20675116       3.92589776      11.29367904        0      -0.00053202      -0.00375972       0.00389717
Ti       5.72004119       3.05110109       8.67318118        0      -0.00160535      -0.00086432      -0.00135085
O        4.20784066       3.92033260       7.74946034        1      -0.00287093      -0.00042918       0.00173964
O        5.72148339       3.07607834      12.23159545        3       0.00090376      -0.00544149      -0.18951222
C        2.69402656       4.79976509       9.94850208        2      -0.00248307      -0.00183650      -0.00108837
Ti       2.69230760       6.54680154      11.29376807        0       0.00313026      -0.00033534       0.00037256
Ti       4.20700398       5.67315734       8.68892856        0      -0.00043048      -0.00002583      -0.00016502
O        2.68886082       6.54972537       7.74959999        1      -0.00099570      -0.00114629      -0.00014278
O        4.20706595       5.67350173      12.23159545        3      -0.00355098      -0.00042100      -0.17015630
C        1.20157689       7.40682172       9.95261919        2      -0.00142786       0.00578316      -0.00149900
Ti       1.20567057       9.18436826      11.27110751        0      -0.00145714      -0.00066479      -0.00722463
Ti       2.69255812       8.29382686       8.67273713        0      -0.00077888       0.00102024       0.00134871
O        1.15791033       9.17490065       7.78246165        1      -0.00070504      -0.00407406      -0.00107778
O        2.71354876       8.28343751      12.23159545        3       0.00078944       0.00363099      -0.18587959
C        8.76275981      -0.45000909       9.96907936        2      -0.00011723       0.00184330      -0.00002041
Ti       8.75199190       1.30025708      11.30378793        0       0.00522525       0.00109269      -0.00049094
Ti      10.26782088       0.42468846       8.68151813        0      -0.00246443       0.00121069      -0.00277828
O        8.73748159       1.29038777       7.76955178        1       0.00020969       0.00375764       0.00356689
O       10.26657500       0.42304290      12.23159545        3      -0.00282157       0.00131314      -0.15202252
C        7.24285675       2.18347732       9.96895555        2      -0.00128637       0.00391367      -0.00045772
Ti       7.22972870       3.92801609      11.29799552        0       0.00087279      -0.00333250       0.00120567
Ti       8.75300225       3.04801466       8.68071267        0      -0.00411632       0.00001892       0.00066093
O        7.24026284       3.92169107       7.75586800        1      -0.00186673      -0.00036631      -0.00291631
O        8.74952864       3.05002101      12.23159545        3       0.00061741      -0.00157729      -0.15373007
C        5.72000847       4.79953389       9.94887735        2       0.00005833      -0.00021794      -0.00029853
Ti       5.72026390       6.54792559      11.29535272        0      -0.00085060       0.00221573      -0.00191474
Ti       7.23337557       5.67314131       8.67323168        0      -0.00053880       0.00146063      -0.00079517
O        5.72520359       6.54974815       7.75097630        1      -0.00171793      -0.00044685      -0.00256873
O        7.21329285       5.66047763      12.23159545        3       0.00446019      -0.00197640      -0.18522992
C        4.20609795       7.42058971       9.94922330        2       0.00260866      -0.00194873      -0.00248049
Ti       4.20543550       9.16449460      11.29826837        0       0.00535457      -0.00029710      -0.00069371
Ti       5.71995986       8.29405262       8.67354373        0       0.00129593       0.00096815      -0.00183887
O        4.20625416       9.17479597       7.75473879        1       0.00132894       0.00040679       0.00318358
O        5.69870757       8.28525342      12.23159545        3       0.00021409      -0.00274900      -0.18681930
C        0.57600582       0.77317484      15.68553629       10       0.00306543       0.00252113       0.04966141
C        1.78291642       1.47521165      15.67024424       10      -0.00295493      -0.00084888       0.02285182
C       -0.63759458       2.87330214      15.69085699       10      -0.00122464      -0.00190319       0.06165978
C        0.57458623       3.57321264      15.67314656       10      -0.00234183      -0.00116671       0.04856408
C       -1.84985469       4.97427984      15.68553629       10       0.00518816      -0.00002640       0.04915671
C       -0.63834729       5.66850590      15.67024424       10       0.00088287      -0.00032581       0.02273810
C       -3.05681250       7.07507136      15.62242554       10       0.00056667       0.00108628       0.11010274
C       -1.84966785       7.75188166      15.58060332       10      -0.00048686       0.00009883      -0.28081025
C       -4.26825237       9.17364148      15.62242554       10       0.00394169      -0.00054302       0.11089316
C       -3.07862759       9.88073912      15.58060332       10      -0.00243131      -0.00427846      -0.27678837
C        2.99889643       0.76816922      15.62242554       10      -0.00080172       0.00093922       0.11102733
C        4.21031626       1.47649041      15.59034686       10       0.00092844      -0.00096867      -0.00314971
C        1.78619292       2.87389315      15.65920127       10       0.00073616       0.00114828       0.08717105
C        2.99789259       3.57319890      15.63728686       10       0.00215645       0.00041662       0.07737162
C        0.57484613       4.97217445      15.65920127       10      -0.00099831      -0.00088639       0.08668768
C        1.78648046       5.67177533      15.63728686       10      -0.00324633       0.00180677       0.07716662
C       -0.64253055       7.07515949      15.62242554       10      -0.00059540       0.00018791       0.10999237
C        0.57674511       7.77011827      15.59034686       10      -0.00169175       0.00190450      -0.00300646
C       -1.84971490       9.17111176      15.12779766       10       0.00062922      -0.00040853       1.10992903
C       -0.62069158       9.88060189      15.58060332       10       0.00113397      -0.00093740      -0.27717333
C        5.42179137       0.76810945      15.62242554       10       0.00043138       0.00222397       0.11049410
C        6.63777771       1.47528370      15.67024424       10       0.00143994      -0.00305515       0.02283574
C        4.21024282       2.87038545      15.62268057       10       0.00280253       0.00011623       0.02587173
C        5.42269462       3.57314769      15.63728686       10       0.00155710       0.00205063       0.07718392
C        2.99919962       4.97288302      15.63460525       10      -0.00312269       0.00120760       0.08539308
C        4.21051956       5.67230007      15.62960448       10      -0.00336445       0.00206697       0.05577420
C        1.78397277       7.07316552      15.62268057       10      -0.00157903       0.00271118       0.02498868
C        2.99873744       7.77194030      15.63728686       10       0.00063948       0.00020173       0.07717841
C        0.56891006       9.17356677      15.62242554       10       0.00116154       0.00029319       0.11032829
C        1.78918568       9.87340047      15.67024424       10       0.00164257      -0.00422544       0.02280229
C        7.84465339       0.77331913      15.68553629       10       0.00173809      -0.00185712       0.04886545
C        9.06015916       1.47485391      15.69247481       10      -0.00042123       0.00062571       0.05547509
C        6.63445705       2.87392122      15.65920127       10       0.00025199      -0.00087123       0.08727164
C        7.84621503       3.57304768      15.67314656       10      -0.00098577       0.00094812       0.04897756
C        5.42171255       4.97285135      15.63460525       10      -0.00099878       0.00291590       0.08576227
C        6.63425286       5.67197801      15.63728686       10       0.00272278      -0.00180723       0.07714374
C        4.21041489       7.07113936      15.63460525       10      -0.00041985       0.00047113       0.08552973
C        5.42196812       7.77214547      15.63728686       10       0.00110951      -0.00359866       0.07757937
C        2.99888340       9.17107206      15.65920127       10       0.00060690      -0.00141369       0.08669026
C        4.21034870       9.87085775      15.67314656       10      -0.00028407      -0.00242004       0.04884755
C       10.27038365       0.77424574      15.69085699       10       0.00190196       0.00355803       0.06177842
C       11.48077818       1.47488276      15.69247481       10      -0.00648652       0.00044194       0.05594009
C        9.05854049       2.87316381      15.69085699       10      -0.00178253       0.00240751       0.06187596
C       10.27047017       3.57086205      15.69247481       10      -0.00362638       0.00270064       0.05562917
C        7.84562845       4.97202134      15.65920127       10       0.00537585       0.00148329       0.08737675
C        9.05871579       5.66833251      15.67024424       10       0.00268475       0.00447097       0.02257520
C        6.63678209       7.07346736      15.62268057       10       0.00133342      -0.00344751       0.02606334
C        7.84412493       7.77023266      15.59034686       10      -0.00304836       0.00124730      -0.00323918
C        5.42175940       9.17117012      15.65920127       10       0.00094809      -0.00149630       0.08722778
C        6.63157670       9.87333084      15.67024424       10      -0.00545147      -0.00265951       0.02295439
O       -1.84996659       9.17226819      13.72142686       11      -0.00272146      -0.00235124       0.00676731
