132
Lattice="12.12 0.0 0.0 -6.06 10.496227893867395 0.0 0.0 0.0 40.0" Properties=species:S:1:pos:R:3:tags:I:1:forces:R:3 energy=-1209.9282894204086 stress="0.002773853976005374 5.007068090396668e-06 -2.0586307678419033e-06 5.007068090396668e-06 0.002778271351252616 7.412571192590503e-07 -2.0586307678419033e-06 7.412571192590503e-07 0.002484460207868683" pbc="T T F"
C       -0.15373386       0.09792161      10.01096275        2      -0.00138460       0.00049126       0.00076494
Ti      -0.16151255       1.85179617      11.33246082        0       0.00179840      -0.00175523      -0.00362060
Ti       1.36112958       0.97408804       8.71050361        0      -0.00120481       0.00047770      -0.00167335
O       -0.15381746       1.84838608       7.78229737        1       0.00000070      -0.00002268      -0.00222158
O        1.36154867       0.97498762      12.23159545        3      -0.00349308       0.00198151       0.03557847
C       -1.66742521       2.72245701      10.01642199        2      -0.00131146       0.00004436      -0.00278090
Ti      -1.66777460       4.46673046      11.30018116        0      -0.00197117       0.00137003       0.00069251
Ti      -0.15086620       3.59854026       8.69992917        0      -0.00274130       0.00025690       0.00457185
O       -1.66820803       4.47083956       7.77783001        1       0.00056215       0.00207203      -0.00393721
O       -0.15162119       3.60600208      12.23159545        3       0.00055235      -0.00271035      -0.08908682
C       -3.18548039       5.34779910      10.00388109        2       0.00152643      -0.00084360       0.00026580
Ti      -3.18365892       7.09096945      11.31912187        0      -0.00439975       0.00122147       0.00045391
Ti      -1.66844357       6.22344633       8.70083188        0       0.00121659      -0.00203600       0.00126541
O       -3.18373907       7.09809204       7.77666740        1      -0.00004158      -0.00034514      -0.00073258
O       -1.66862019       6.21655303      12.23159545        3       0.00118226      -0.00176517       0.00162024
C       -4.69839578       7.96991101      10.00707248        2       0.00185369       0.00094035      -0.00120333
Ti      -4.69847893       9.72060010      11.32529541        0      -0.00189454      -0.00123328       0.00003794
Ti      -3.18444247       8.84670732       8.70308046        0       0.00266781      -0.00103190       0.00120848
O       -4.69916025       9.72240755       7.78157572        1       0.00121125      -0.00190754      -0.00327459
O       -3.18232044       8.84298736      12.23159545        3      -0.00101518       0.00189626       0.01866102
C        2.87754418       0.09884272      10.00893626        2       0.00062589      -0.00089448      -0.00047838
Ti       2.87653149       1.85025611      11.32375904        0      -0.00015116       0.00119813       0.00126311
Ti       4.38988457       0.97383577       8.70176752        0       0.00313202      -0.00164975       0.00117075
O        2.87381450       1.84777853       7.77974952        1       0.00245050      -0.00098425      -0.00208664
O        4.39491187       0.97612762      12.23159545        3      -0.00111196       0.00037647      -0.00991137
C        1.36190779       2.72433123      10.00889507        2      -0.00036526       0.00068476      -0.00025295
Ti       1.36187200       4.47310876      11.31671311        0       0.00205719       0.00097060       0.00117743
Ti       2.87586417       3.59719418       8.70357246        0      -0.00132201      -0.00129761       0.00030580
O        1.36022411       4.47204278       7.77688396        1       0.00153225       0.00047888       0.00072105
O        2.87917190       3.59955340      12.23159545        3       0.00086402       0.00099085       0.01105323
C       -0.15192667       5.34942866      10.00367348        2      -0.00057948      -0.00206541       0.00066199
Ti      -0.15752882       7.09492977      11.32138622        0       0.00061886       0.00198874       0.00123764
Ti       1.36054039       6.22332963       8.70073396        0       0.00013529      -0.00090026       0.00113849
O       -0.15430607       7.09738272       7.77570492        1      -0.00219749       0.00063444      -0.00036094
O        1.36095272       6.22421042      12.23159545        3       0.00024238      -0.00130213       0.01545833
C       -1.66828499       7.97088465      10.00632805        2      -0.00073033       0.00154245      -0.00026952
Ti      -1.66778952       9.72201742      11.31752290        0       0.00118112       0.00018776       0.00141516
Ti      -0.15455484       8.84650588       8.70242463        0      -0.00038752       0.00112011       0.00164238
O       -1.67022982       9.72081734       7.77739389        1       0.00012344       0.00025545      -0.00495541
O       -0.15191103       8.84679137      12.23159545        3      -0.00009719       0.00037172      -0.00068952
C        5.90619696       0.09979099      10.00461991        2      -0.00053960      -0.00043831       0.00034448
Ti       5.91124226       1.85212103      11.31589380        0      -0.00276686       0.00237822      -0.00018904
Ti       7.41928619       0.97345316       8.69760527        0       0.00206607      -0.00084471       0.00059246
O        5.90475516       1.84798234       7.77445999        1      -0.00035317       0.00047620      -0.00048228
O        7.42362176       0.97767672      12.23159545        3       0.00361562       0.00020817       0.02148815
C        4.39152296       2.72429076      10.00439852        2       0.00030254      -0.00104808      -0.00078791
Ti       4.39481151       4.47157366      11.31433349        0       0.00047078      -0.00003749       0.00212454
Ti       5.90249361       3.59933131       8.69603215        0       0.00113347      -0.00057177       0.00554695
O        4.38850528       4.47239673       7.77221946        1      -0.00297415       0.00142668      -0.00188548
O        5.90862572       3.59919011      12.23159545        3       0.00249044      -0.00035059       0.01504642
C        2.87701178       5.34888039      10.00447102        2      -0.00164030       0.00001580      -0.00152281
Ti       2.87529454       7.09800759      11.31610302        0       0.00145070      -0.00183068       0.00085989
Ti       4.38913498       6.22326081       8.69646565        0       0.00244785      -0.00034708       0.00487708
O        2.87396259       7.09842628       7.77263141        1       0.00102866      -0.00208933      -0.00087664
O        4.39215882       6.22089797      12.23159545        3      -0.00342835       0.00170969      -0.00242352
C        1.36124203       7.97194643      10.00491111        2       0.00066999      -0.00028361       0.00103931
Ti       1.36168572       9.72606634      11.31919434        0      -0.00047713      -0.00240482       0.00073690
Ti       2.87507954       8.84537378       8.70028906        0       0.00125986      -0.00009664       0.00264718
O        1.36081960       9.72045825       7.77541152        1      -0.00064273       0.00098997      -0.00093266
O        2.87466792       8.84776711      12.23159545        3       0.00201804       0.00182786       0.01597310
C        8.93525988       0.09741953      10.00499683        2       0.00118048       0.00106954       0.00046843
Ti       8.94251526       1.84440811      11.29896288        0      -0.00250909       0.00419145      -0.00112509
Ti      10.45273121       0.97133790       8.70232861        0      -0.00398724       0.00322708       0.00241183
O        8.93876963       1.84908089       7.77884097        1      -0.00266613      -0.00270545      -0.00689789
O       10.44618261       0.96710994      12.23159545        3       0.00071155       0.00098998      -0.15168902
C        7.41919350       2.72370018      10.00217785        2       0.00158641      -0.00168967       0.00065709
Ti       7.42131090       4.46975689      11.29803075        0      -0.00348179       0.00367316       0.00305804
Ti       8.93434100       3.59963078       8.69288723        0       0.00461307      -0.00493769       0.00340193
O        7.42175778       4.47310391       7.77365042        1       0.00011760      -0.00087072       0.00250241
O        8.92834707       3.59625308      12.23159545        3       0.00045612       0.00058193       0.14370224
C        5.90057657       5.35034286       9.99890208        2      -0.00148350       0.00126647      -0.00488673
Ti       5.90876716       7.09273654      11.31930001        0      -0.00025478       0.00014604       0.00151858
Ti       7.41869224       6.22475817       8.69860976        0       0.00196796      -0.00333637       0.00359765
O        5.90553583       7.09957282       7.77427930        1      -0.00007954       0.00145565      -0.00339224
O        7.42081348       6.21693143      12.23159545        3      -0.00022028      -0.00103683       0.00102735
C        4.39049178       7.96881766      10.00497639        2      -0.00009165       0.00154981      -0.00233849
Ti       4.39209410       9.72034609      11.32021997        0       0.00017860      -0.00060157       0.00019401
Ti       5.90677947       8.84639971       8.70627866        0      -0.00041265       0.00141891      -0.00138558
O        4.39213504       9.72156728       7.77902455        1       0.00009409      -0.00084569      -0.00003610
O        5.90675539       8.84333157      12.23159545        3      -0.00132632      -0.00076198       0.02628809
C        0.30456960      -0.09979705      16.42671689       10       0.00537604       0.00364627      -0.00020835
C        1.51135745       0.60395526      16.43510512       10      -0.00102718      -0.00316275      -0.00287044
C       -0.88500025       1.98660007      16.40234622       10       0.00036191      -0.00219781       0.67628308
C        0.30167942       2.70160472      16.40998496       10      -0.00208184       0.00063886       0.04668151
C       -2.12889065       4.14068262      16.40234067       10      -0.00162867      -0.00281567       0.36515891
C       -0.91655116       4.81007283      16.40998240       10      -0.00489428      -0.00300379       0.03654139
C       -3.34098644       6.21594017      16.42671634       10      -0.00028564      -0.00163298      -0.00285680
C       -2.12727240       6.90699520      16.43510492       10      -0.00179671      -0.00159717       0.01450571
C       -4.55157773       8.30354681      16.42482395       10       0.00674369       0.00382084       0.01425498
C       -3.33923896       9.00289954      16.43611361       10      -0.00145408      -0.00334917      -0.00030022
C        2.72292995      -0.09598784      16.43713863       10       0.00325898      -0.00014115       0.02671951
C        3.93262235       0.60523092      16.43611352       10       0.00214427       0.00015963       0.00000557
C        1.51753862       1.99962044      16.42671710       10      -0.00210785       0.00047769      -0.00354704
C        2.72286833       2.70527907      16.41765697       10      -0.00259317       0.00086260       0.01465667
C        0.30014522       4.10628245      16.38385708       10      -0.00165524       0.00115139      -0.01872055
C        1.50708848       4.80395565      16.39552703       10       0.00034248       0.00042933       0.02089361
C       -0.91641762       6.21463938      16.42671634       10      -0.00267266      -0.00379790      -0.00530375
C        0.29720106       6.90581009      16.41765707       10      -0.00236105      -0.00056102       0.03781134
C       -2.12841182       8.30710005      16.43713884       10       0.00148121      -0.00024761       0.01964734
C       -0.91568096       9.00322012      16.43611361       10       0.00010818       0.00140597       0.00606480
C        5.14121072      -0.09535764      16.43713863       10      -0.00013313      -0.00067954       0.01621639
C        6.35318418       0.60436896      16.43510512       10      -0.00108745      -0.00246791      -0.00388198
C        3.93209835       2.00369295      16.42482382       10      -0.00117286       0.00108510       0.00796539
C        5.14158733       2.70503860      16.41765697       10      -0.00013965       0.00113765       0.00606819
C        2.72039177       4.10279861      16.40377347       10       0.00172789       0.00143698      -0.01165035
C        3.93213094       4.80401101      16.40098561       10       0.00183294       0.00315405       0.01510239
C        1.50653748       6.20473756      16.40377337       10      -0.00070993      -0.00049772      -0.02289832
C        2.71973011       6.90313258      16.40098550       10      -0.00097946       0.00082714       0.03543475
C        0.29461447       8.30451358      16.42482395       10      -0.00133849       0.00094415      -0.00207523
C        1.50658467       9.00213872      16.41765682       10      -0.00038714      -0.00000647       0.00918397
C        7.55889559      -0.09802278      16.42671689       10      -0.00255192      -0.00095451       0.00582939
C        8.77457752       0.60437649      16.40998477       10      -0.00206343       0.00012968       0.04470397
C        6.34511355       2.00007369      16.42671710       10       0.00078834      -0.00145129       0.01479822
C        7.56094554       2.70120833      16.40998496       10       0.00137642       0.00080698       0.04330669
C        5.14320414       4.10259011      16.40377347       10       0.00190524       0.00150089       0.01525082
C        6.35566970       4.80362446      16.39552703       10       0.00312822       0.00005159      -0.02643300
C        3.93182487       6.20334940      16.39790761       10       0.00027127       0.00251768      -0.03085320
C        5.14240749       6.90244631      16.40098550       10       0.00145563      -0.00105573       0.00908262
C        2.71808510       8.30361430      16.40377320       10       0.00004148       0.00083350      -0.01288954
C        3.93051614       9.00346822      16.39552662       10       0.00145512      -0.00108030      -0.00882516
C        9.99109693      -0.09833027      16.38385703       10       0.00205949       0.00233609       0.00514031
C       11.20866004       0.60273530      16.40998477       10      -0.00667053      -0.00346970       0.02402046
C        8.74894908       1.98913184      16.40234622       10       0.00204684       0.00087271       0.41233483
C        9.98772059       2.70891006      16.15798696       10       0.00080042      -0.00092358      -1.89158161
C        7.56291561       4.10701288      16.38385708       10       0.00364434       0.00022761      -0.02049351
C        8.77933277       4.81217754      16.40998240       10      -0.00017030      -0.00088316       0.03782322
C        6.35658726       6.20465593      16.40377337       10       0.00249029       0.00007089       0.01644086
C        7.56573654       6.90516579      16.41765707       10       0.00059064       0.00347352       0.01579728
C        5.14485502       8.30346089      16.40377320       10       0.00490694       0.00206115       0.00186305
C        6.35659520       9.00039288      16.41765682       10      -0.00488118      -0.00048916      -0.00070655
O       10.07903314       2.64111479      14.63476079       11      -0.00119203      -0.00173605      -0.00004546
H        9.38439980       3.16758681      14.18759833       12      -0.00196180       0.00186124      -0.00352903
