132
Lattice="12.12 0.0 0.0 -6.06 10.496227893867395 0.0 0.0 0.0 40.0" Properties=species:S:1:pos:R:3:tags:I:1:forces:R:3 energy=-1209.4148704790443 stress="0.002803081913843412 8.2409874723852e-06 -9.060526996231662e-06 8.2409874723852e-06 0.002798542652432329 -5.811191153696388e-06 -9.060526996231662e-06 -5.811191153696388e-06 0.0028473094841967514" pbc="T T F"
C       -0.12508237       0.11472931       9.96955969        2      -0.00189767      -0.00337017       0.00409673
Ti      -0.15135932       1.87155408      11.31713635        0       0.00430212      -0.00082035       0.00099886
Ti       1.38778872       0.99769613       8.69800401        0      -0.00129733      -0.00089196       0.00332341
O       -0.13156984       1.87442413       7.78008780        1      -0.00082133      -0.00100970       0.00384103
O        1.38938189       0.99456671      12.23159545        3      -0.00228348      -0.00083775      -0.07634521
C       -1.64463926       2.74342674      10.01029508        2      -0.00005186      -0.00341925       0.00261958
Ti      -1.63418308       4.48677607      11.29419430        0       0.00000567       0.00341917      -0.00361491
Ti      -0.12253001       3.62110050       8.70110574        0      -0.00308249       0.00148928       0.00176905
O       -1.64421795       4.48986254       7.77918921        1       0.00044825       0.00094911      -0.00001280
O       -0.12391847       3.62860147      12.23159545        3       0.00066354      -0.00187651      -0.28133379
C       -3.16303796       5.37820858       9.96574047        2      -0.00168338       0.00118579       0.00373975
Ti      -3.16109950       7.11943708      11.29559704        0       0.00117317       0.00110587      -0.00201222
Ti      -1.64537638       6.24711669       8.69364772        0       0.00017296      -0.00231803       0.00018828
O       -3.15607017       7.12320283       7.76652240        1      -0.00212500      -0.00231620      -0.00176997
O       -1.64722088       6.24238011      12.23159545        3       0.00262279       0.00150841      -0.09403692
C       -4.67266771       7.99447816       9.97122175        2       0.00035326      -0.00155853       0.00094131
Ti      -4.67728717       9.74470737      11.31018349        0       0.00136823       0.00292830      -0.00297518
Ti      -3.15521582       8.87206103       8.69593576        0      -0.00016097      -0.00048853      -0.00193062
O       -4.67048908       9.74577593       7.77047923        1      -0.00190546       0.00157496      -0.00034775
O       -3.15807931       8.87239122      12.23159545        3      -0.00415601      -0.00194242      -0.11984207
C        2.90218335       0.12435604       9.97479161        2      -0.00358165      -0.00196458       0.00222938
Ti       2.89842228       1.87278887      11.30270550        0      -0.00425734      -0.00385917      -0.00120750
Ti       4.41332485       0.99664524       8.69726924        0       0.00038965      -0.00241993      -0.00072074
O        2.90169811       1.87338949       7.77158977        1      -0.00130568      -0.00402884       0.00031063
O        4.41705938       0.99869313      12.23159545        3      -0.00260124       0.00094875      -0.13162486
C        1.38710345       2.74835452       9.97749701        2       0.00115424      -0.00038479       0.00320872
Ti       1.39479052       4.49550001      11.29311186        0       0.00193319       0.00259128      -0.00488592
Ti       2.90042846       3.62063971       8.69585772        0      -0.00111654      -0.00106061       0.00077330
O        1.38440275       4.49628587       7.77315927        1      -0.00454685      -0.00286363      -0.00063833
O        2.90140501       3.61886195      12.23159545        3       0.00116563      -0.00275256      -0.08196063
C       -0.12609609       5.37332674       9.97777421        2      -0.00310451      -0.00046612       0.00086512
Ti      -0.13433664       7.12107376      11.30527681        0       0.00028592      -0.00170881      -0.00124422
Ti       1.38461014       6.24688895       8.69803875        0      -0.00099889      -0.00245446       0.00116453
O       -0.12894505       7.12062851       7.77166366        1       0.00007551      -0.00173134      -0.00150405
O        1.38278009       6.24459763      12.23159545        3      -0.00037529       0.00233363      -0.08481443
C       -1.64356882       7.99528478       9.97709913        2      -0.00278401      -0.00182394       0.00034301
Ti      -1.64102158       9.74722491      11.29769919        0      -0.00695078       0.00249464      -0.00363439
Ti      -0.12950348       8.86875804       8.69512120        0      -0.00055519      -0.00057938       0.00584151
O       -1.64105630       9.74527417       7.77024168        1      -0.00044842       0.00167690       0.00149567
O       -0.12712434       8.87053829      12.23159545        3      -0.00434921       0.00273362      -0.09404478
C        5.93357486       0.12286862       9.97946368        2      -0.00048699       0.00035327       0.00197261
Ti       5.93607795       1.87415729      11.30266275        0      -0.00280875      -0.00061831       0.00133594
Ti       7.44157665       0.99735927       8.69434202        0      -0.00017963       0.00225639       0.00207313
O        5.93041704       1.87102724       7.77237678        1      -0.00029923      -0.00012275      -0.00107105
O        7.44938796       0.99995852      12.23159545        3       0.00079796      -0.00100469      -0.10274380
C        4.41406885       2.74843321       9.97596850        2      -0.00031869      -0.00051713       0.00344431
Ti       4.41696452       4.49195338      11.29920353        0       0.00044028       0.00085395      -0.00055020
Ti       5.92585143       3.61742222       8.69804851        0       0.00356327      -0.00158529      -0.00055615
O        4.41551191       4.49520383       7.76911156        1      -0.00257548      -0.00161758      -0.00100029
O        5.92953013       3.61978060      12.23159545        3      -0.00199417       0.00263381      -0.10974391
C        2.90302431       5.37331864       9.97768035        2       0.00013180      -0.00272464      -0.00005177
Ti       2.90000911       7.11790889      11.30479496        0       0.00118746       0.00020050       0.00181125
Ti       4.41487041       6.24686634       8.68244701        0      -0.00237784      -0.00265149      -0.00291351
O        2.89846799       7.12090921       7.76816026        1       0.00065620      -0.00305374       0.00374161
O        4.41564008       6.24545733      12.23159545        3       0.00047850      -0.00290690      -0.12820390
C        1.38584424       7.99271853       9.97695011        2      -0.00328718      -0.00146393       0.00047233
Ti       1.38781493       9.74218094      11.30112210        0      -0.00336436      -0.00321354       0.00035776
Ti       2.89986979       8.86917741       8.69340351        0      -0.00184827      -0.00300651       0.00090627
O        1.38628495       9.74511649       7.77252048        1       0.00108987      -0.00142354       0.00001720
O        2.90049826       8.86430516      12.23159545        3      -0.00405304      -0.00273830      -0.13549655
C        8.96258398       0.11399374       9.97918670        2      -0.00058605       0.00125947       0.00573569
Ti       8.99088809       1.84994786      11.31193080        0      -0.00277360      -0.00785371      -0.00018970
Ti      10.48289263       0.98848567       8.69941442        0      -0.00043781       0.00097350       0.00308889
O        8.96529817       1.87350298       7.78415834        1      -0.00205439      -0.00193305       0.00062680
O       10.49244326       0.94453846      12.23159545        3       0.00208472       0.00022122      -0.63548529
C        7.44287705       2.74802148       9.97417062        2      -0.00246079      -0.00232106       0.00058653
Ti       7.42088641       4.51266075      11.27319729        0      -0.00690135       0.00258323      -0.00452683
Ti       8.95199366       3.62769665       8.68543408        0       0.00347888      -0.00129576       0.00047318
O        7.44390964       4.49585173       7.77055333        1       0.00375447      -0.00403745      -0.00326402
O        8.92252588       3.66354593      12.23159545        3       0.00570695      -0.00139868      -0.54136351
C        5.92113199       5.37735135       9.97877702        2       0.00303523      -0.00185618       0.00338282
Ti       5.93552534       7.11908657      11.29141131        0      -0.00081844      -0.00350285      -0.00063760
Ti       7.45008354       6.25340788       8.68987435        0      -0.00054755      -0.00183737      -0.00110914
O        5.93060864       7.11934169       7.76418082        1      -0.00494758      -0.00010176      -0.00031493
O        7.44794089       6.24689727      12.23159545        3      -0.00336957      -0.00040211      -0.12029030
C        4.41691588       7.98681784       9.97480148        2      -0.00002610      -0.00082330       0.00099736
Ti       4.42210520       9.71953371      11.27535393        0      -0.00100755      -0.00597434      -0.00223804
Ti       5.93709181       8.87037098       8.68902203        0      -0.00370244      -0.00226259       0.00179781
O        4.41551090       9.74337478       7.76860490        1      -0.00510160      -0.00112158      -0.00012471
O        5.93703477       8.86497718      12.23159545        3       0.00127980      -0.00006824      -0.10911525
C        0.26732048      -0.13894579      15.71619057       10      -0.00205304      -0.00202899       0.07629850
C        1.47309478       0.56390818      15.72457880       10       0.00563524       0.00374754       0.06027226
C       -0.92093694       1.94694795      15.69181990       10       0.00353739       0.00316967       0.69565461
C        0.26529983       2.66066515      15.69945864       10       0.00574222       0.00193849       0.10785027
C       -2.16763497       4.10356131      15.69181435       10      -0.00115170       0.00731991       0.38631734
C       -0.95502068       4.77387057      15.69945608       10       0.00319925       0.00337585       0.09060594
C       -3.38027749       6.17930365      15.71619002       10      -0.00144797       0.00321391       0.04602848
C       -2.16730231       6.87038165      15.72457860       10       0.00194423       0.00107534       0.04748142
C       -4.59020231       8.26606175      15.71429763       10      -0.00504289      -0.00006691       0.07705102
C       -3.37872761       8.96491090      15.72558729       10       0.00685520       0.00619608       0.04963164
C        2.68376436      -0.13487974      15.72661231       10       0.00222152       0.00221395       0.08486928
C        3.89241437       0.56538355      15.72558720       10       0.00072806       0.00318703       0.04116087
C        1.48001825       1.96086217      15.71619078       10       0.00220563      -0.00021066       0.07687951
C        2.68405713       2.66494627      15.70713065       10       0.00044944      -0.00079753       0.03481041
C        0.26140422       4.06714683      15.67333076       10       0.00118029       0.00134233       0.04603313
C        1.46874377       4.76550750      15.68500071       10       0.00106972       0.00166574       0.00972930
C       -0.95515054       6.17798110      15.71619002       10       0.00168231       0.00191597       0.05557198
C        0.25746884       6.86895437      15.70713075       10       0.00033080       0.00350981       0.03188534
C       -2.16741614       8.26853803      15.72661252       10       0.00434863       0.00082010       0.07266153
C       -0.95682549       8.96526082      15.72558729       10       0.00295539       0.00370956       0.03695032
C        5.10105950      -0.13452618      15.72661231       10      -0.00026311       0.00103383       0.03966738
C        6.31294256       0.56511666      15.72457880       10      -0.00151476      -0.00050549       0.03037183
C        3.89243114       1.96467238      15.71429750       10       0.00055088       0.00163525       0.03584462
C        5.10026724       2.66656804      15.70713065       10       0.00113477       0.00059399       0.04077486
C        2.68196591       4.06448604      15.69324715       10       0.00202704      -0.00000857       0.06422439
C        3.89228775       4.76692904      15.69045929       10       0.00452978       0.00141318       0.01587932
C        1.46770551       6.16701582      15.69324705       10       0.00062270       0.00305829       0.05666370
C        2.68134677       6.86541355      15.69045918       10       0.00125335       0.00370020       0.02485635
C        0.25507798       8.26679078      15.71429763       10       0.00222419       0.00236365       0.04366808
C        1.46692311       8.96345833      15.70713050       10       0.00081320       0.00129234       0.02084304
C        7.51999041      -0.13624322      15.71619057       10      -0.00220291      -0.00257745      -0.01574963
C        8.73643160       0.56649169      15.69945845       10      -0.00259741      -0.00124301       0.11785004
C        6.30566198       1.96182827      15.71619078       10      -0.00087644      -0.00081451      -0.00918089
C        7.52190361       2.66325736      15.69945864       10      -0.00271366       0.00335795       0.09730399
C        5.10319319       4.06536886      15.69324715       10       0.00553242       0.00141497       0.00964631
C        6.31574245       4.76771742      15.68500071       10       0.00314560       0.00287568       0.01595431
C        3.89329374       6.16629672      15.68738129       10       0.00273124       0.00326116       0.04003823
C        5.10467988       6.86633993      15.69045918       10       0.00356529       0.00112320       0.02986353
C        2.67980235       8.26581744      15.69324688       10       0.00175237       0.00164618       0.05189553
C        3.89345864       8.96613979      15.68500030       10       0.00224707      -0.00249425       0.01046586
C        9.95399379      -0.13496157      15.67333071       10      -0.00374589      -0.00718096       0.02725337
C       11.17326295       0.56403184      15.69945845       10       0.00852064       0.00174337       0.09717338
C        8.71112151       1.95270579      15.69181990       10      -0.00275173       0.00184408       0.33559176
C        9.95326413       2.67076117      15.44746064       10       0.00073215       0.00524875      -0.84262096
C        7.52415252       4.06986207      15.67333076       10      -0.00033127       0.00370343      -0.04104572
C        8.74049080       4.77697466      15.69945608       10       0.00162841       0.00305286       0.13833129
C        6.31734890       6.16844683      15.69324705       10       0.00018581       0.00028732       0.05806335
C        7.52694723       6.86993346      15.70713075       10       0.00040607      -0.00215466       0.05237713
C        5.10632328       8.26549865      15.69324688       10       0.00038568      -0.00327690       0.09220261
C        6.31960728       8.96256257      15.70713050       10       0.00742844       0.00394985       0.06049384
O       10.02720020       2.62786066      13.99947148       11      -0.00004431       0.00082973      -0.00743196
H        9.37081501       3.25344072      13.54432521       12       0.00220418       0.00164024       0.00190828
