131
Lattice="12.12 0.0 0.0 -6.06 10.496227893867395 0.0 0.0 0.0 40.0" Properties=species:S:1:pos:R:3:tags:I:1:forces:R:3 energy=-1204.6329018809013 stress="0.0028223336205051817 1.562696063886206e-07 1.0668587351582006e-06 1.562696063886206e-07 0.002847640319224371 6.275328639744842e-06 1.0668587351582006e-06 6.275328639744842e-06 0.002803715648080388" pbc="T T F"
C       -0.34935305       0.03841704       9.97972298        2      -0.00062006      -0.00012195       0.00075024
Ti      -0.33697222       1.78926794      11.30883573        0      -0.00154566       0.00402236      -0.00094241
Ti       1.18198197       0.90740307       8.69866529        0       0.00154058       0.00225890       0.00060983
O       -0.33441029       1.78507051       7.77127977        1       0.00499851       0.00105070      -0.00149047
O        1.16749419       0.91741365      12.23159545        3      -0.00263131      -0.00175785      -0.06585339
C       -1.85320159       2.65441228       9.98155352        2       0.00162362      -0.00040342       0.00133972
Ti      -1.85287234       4.39946564      11.29581360        0       0.00160123      -0.00008522      -0.00411180
Ti      -0.33800141       3.53631401       8.69706313        0       0.00266803       0.00055601       0.00340413
O       -1.85338485       4.41666417       7.77910162        1       0.00140914       0.00181540      -0.00256307
O       -0.33880751       3.53404784      12.23159545        3      -0.00043117       0.00067272      -0.08218311
C       -3.36845670       5.27986414       9.98493747        2       0.00012819       0.00198503      -0.00289590
Ti      -3.35548351       7.04786446      11.32874713        0       0.00115688       0.00276024       0.00019725
Ti      -1.85209239       6.15860620       8.71858869        0      -0.00073537      -0.00220630       0.00348437
O       -3.36042700       7.03679236       7.79229915        1      -0.00092692      -0.00074696      -0.00076441
O       -1.85186394       6.14068828      12.23159545        3      -0.00397904       0.00229721      -0.19314012
C       -4.89577383       7.90617242       9.97310868        2      -0.00190653       0.00067206       0.00107719
Ti      -4.92162562       9.67619055      11.26656145        0       0.00240690      -0.00270125      -0.00336342
Ti      -3.37657759       8.78361979       8.72457221        0      -0.00133832       0.00206297       0.00250621
O       -4.87855735       9.65514248       7.77222304        1      -0.00036834       0.00048307       0.00257110
O       -3.46421553       8.78761830      12.23159545        3       0.00259431      -0.00184294      -0.51813247
C        2.68577813       0.03388604       9.99101600        2       0.00084425       0.00092346       0.00128189
Ti       2.68813556       1.77413183      11.30072863        0      -0.00097116       0.00308664      -0.00244041
Ti       4.20674734       0.90753330       8.70950945        0       0.00013891      -0.00353932      -0.00022021
O        2.69570734       1.77995155       7.77872389        1       0.00075519      -0.00204487      -0.00216813
O        4.20757730       0.90634567      12.23159545        3      -0.00089946       0.00164381       0.00661742
C        1.17460342       2.65980991       9.97974995        2      -0.00015392       0.00126342       0.00245114
Ti       1.17844563       4.40671310      11.31236566        0      -0.00172280      -0.00001805      -0.00125984
Ti       2.69022738       3.53246830       8.69635333        0       0.00267897      -0.00050352       0.00427299
O        1.17737834       4.40812795       7.77445254        1      -0.00120141      -0.00047236       0.00095880
O        2.68865457       3.52762500      12.23159545        3       0.00091277       0.00045025      -0.08449886
C       -0.33716887       5.27961984       9.98464469        2       0.00120446       0.00237962      -0.00205828
Ti      -0.34895492       7.04804168      11.32895024        0      -0.00195245       0.00006772      -0.00098958
Ti       1.17417193       6.15872212       8.69725374        0      -0.00433931       0.00254149       0.00154196
O       -0.34391757       7.03683762       7.79257773        1      -0.00199780       0.00079564       0.00021464
O        1.18373123       6.15139087      12.23159545        3      -0.00302594       0.00227490      -0.07303466
C       -1.85252606       7.91612149      10.03835679        2       0.00213061       0.00197688      -0.00132614
Ti      -1.85236986       9.59816791      11.43830097        0       0.00044575      -0.00169659      -0.00711420
Ti      -0.32839843       8.78363500       8.72523248        0       0.00132888       0.00061069       0.00179356
O       -1.85216295       9.64988620       7.81295808        1      -0.00126742       0.00137849      -0.00252003
O       -0.24016699       8.78696874      12.23159545        3      -0.00357958       0.00360057      -0.51803849
C        5.72947953       0.03421281       9.99119982        2      -0.00290528      -0.00116086       0.00121496
Ti       5.72747757       1.77436490      11.30089696        0       0.00020076       0.00153325      -0.00265743
Ti       7.23099374       0.90773068       8.69916998        0       0.00017010       0.00135802       0.00042882
O        5.71757876       1.78005769       7.77884293        1       0.00473239       0.00033608      -0.00120643
O        7.24790400       0.91684429      12.23159545        3       0.00051667       0.00205948      -0.06416618
C        4.20691717       2.65296856       9.98943200        2      -0.00000874       0.00004273      -0.00202627
Ti       4.20691356       4.39940939      11.30402542        0       0.00017036       0.00010969      -0.00148257
Ti       5.72235121       3.53289515       8.69687882        0       0.00327319      -0.00180135       0.00286652
O        4.20671277       4.40227969       7.77279613        1       0.00122952      -0.00141170      -0.00058266
O        5.72501312       3.52804378      12.23159545        3       0.00168297      -0.00089024      -0.08087985
C        2.69314179       5.27826080       9.98149441        2       0.00041580       0.00068039       0.00112218
Ti       2.69251115       7.03223310      11.31304725        0      -0.00081361       0.00152462       0.00025625
Ti       4.20758430       6.15165493       8.70216131        0       0.00025069      -0.00133414       0.00346972
O        2.69156768       7.02626916       7.77107145        1      -0.00178767       0.00052786      -0.00018491
O        4.20755387       6.15354238      12.23159545        3      -0.00029654      -0.00028312      -0.08006200
C        1.19167147       7.90623058       9.97417547        2      -0.00128366      -0.00190848      -0.00360409
Ti       1.21707927       9.67582366      11.26718325        0       0.00209608      -0.00061600      -0.00469124
Ti       2.69275430       8.77380332       8.68580989        0      -0.00079561      -0.00149278       0.00348935
O        1.17362842       9.65505135       7.77381978        1       0.00001065       0.00143106      -0.00390382
O        2.70338489       8.77676959      12.23159545        3      -0.00324278      -0.00114168      -0.09933658
C        8.76458668       0.03859855       9.97965350        2       0.00080758      -0.00046962       0.00152049
Ti       8.75273688       1.78945893      11.30882335        0      -0.00436279       0.00235673      -0.00115363
Ti      10.26600053       0.90991891       8.67462775        0       0.00258114      -0.00125818       0.00231356
O        8.74714958       1.78543286       7.77107564        1      -0.00065434       0.00136990       0.00109244
O       10.26752841       0.91152179      12.23159545        3       0.00091642       0.00002245      -0.11876866
C        7.23893041       2.66026606       9.98093271        2       0.00322056      -0.00104271      -0.00259327
Ti       7.23558727       4.40664607      11.31262846        0       0.00250447       0.00208540      -0.00254330
Ti       8.75109741       3.53676804       8.69746496        0      -0.00074496      -0.00068413       0.00233349
O        7.23611195       4.40836385       7.77523811        1       0.00172547      -0.00190608      -0.00073493
O        8.75323214       3.53453920      12.23159545        3       0.00105948      -0.00142888      -0.07952974
C        5.72075814       5.27852724       9.98204469        2       0.00084971      -0.00104401      -0.00234170
Ti       5.72277427       7.03231332      11.31370190        0      -0.00045207      -0.00230969      -0.00300580
Ti       7.24148928       6.15924611       8.69730171        0       0.00151211       0.00111651       0.00129261
O        5.72341475       7.02612843       7.77108215        1       0.00209864       0.00030584      -0.00005439
O        7.23190208       6.15202832      12.23159545        3       0.00009472      -0.00006725      -0.07170118
C        4.20811066       7.90488027       9.97390221        2      -0.00334774       0.00018817       0.00122741
Ti       4.20809897       9.65538287      11.30335819        0      -0.00208330      -0.00182029      -0.00094967
Ti       5.72303710       8.77378968       8.68575881        0      -0.00326777      -0.00100235       0.00204392
O        4.20729839       9.65664238       7.76391109        1       0.00175888      -0.00214043      -0.00117445
O        5.71299332       8.77628172      12.23159545        3      -0.00094364       0.00294178      -0.09798990
C        0.57251136       0.01784154      15.82764156       10      -0.00632096       0.00079477       0.05375838
C        1.77943729       0.71927489      15.81234951       10      -0.00052639       0.00248666       0.04413133
C       -0.63901891       2.11545884      15.83296226       10      -0.00355010      -0.00229381      -0.00959007
C        0.57313837       2.81478512      15.81525183       10      -0.00252164      -0.00228306       0.01809018
C       -1.85103444       4.21319219      15.82764156       10       0.00122908      -0.00418588       0.00127983
C       -0.63966223       4.90763002      15.81234951       10       0.00105088      -0.00120970       0.03129708
C       -3.05754056       6.31405252      15.76453081       10      -0.00094711       0.00179802       0.14961712
C       -1.85108054       6.99261370      15.72270859       10      -0.00000120       0.00557469      -0.37376692
C       -4.27095217       8.41891498      15.76453081       10      -0.00180633      -0.00014694       0.16082922
C       -3.07901359       9.12460313      15.72270859       10       0.00896652       0.00080341      -0.43712833
C        2.99516904       0.01211363      15.76453081       10      -0.00398209      -0.00197308       0.18300053
C        4.20935527       0.71832315      15.73245213       10      -0.00494808      -0.00077319       0.02117886
C        1.78479182       2.11654733      15.80130654       10      -0.00135671      -0.00008883       0.05712785
C        2.99612660       2.81478385      15.77939213       10       0.00111103      -0.00258605       0.04392571
C        0.57340290       4.21305119      15.80130654       10       0.00025156      -0.00186722       0.00019621
C        1.78414583       4.91434693      15.77939213       10       0.00160032      -0.00190025       0.03412727
C       -0.64452888       6.31419445      15.76453081       10      -0.00221907      -0.00052246       0.14968675
C        0.57430280       7.01384834      15.73245213       10       0.00066752      -0.00158838       0.00326389
C       -1.85124140       8.41186735      15.26990293       10       0.00437262       0.00179380       1.32989471
C       -0.62323687       9.12459709      15.72270859       10      -0.00137609       0.00065473      -0.43724635
C        5.42346746       0.01211018      15.76453081       10      -0.00415110      -0.00078593       0.18236677
C        6.63913450       0.71937729      15.81234951       10      -0.00226179      -0.00263985       0.04423515
C        4.20907017       2.11320111      15.76478584       10       0.00224922      -0.00041113       0.04303319
C        5.42205349       2.81453220      15.77939213       10       0.00180116       0.00201340       0.04411722
C        2.99729005       4.21509591      15.77671052       10      -0.00064102      -0.00380648       0.02826494
C        4.20914173       4.91450302      15.77170975       10      -0.00266559      -0.00229807       0.01175143
C        1.78185119       6.31630999      15.76478584       10       0.00491110      -0.00032887       0.02076835
C        2.99679105       7.01599816      15.77939213       10       0.00583536      -0.00042541       0.04757634
C        0.56884171       8.41900927      15.76453081       10       0.00005106      -0.00082327       0.16054861
C        1.78944470       9.11796724      15.81234951       10      -0.00092814       0.00072636       0.04841075
C        7.84595069       0.01781897      15.82764156       10       0.00248717       0.00093623       0.05405257
C        9.05937249       0.71726137      15.83458008       10       0.00138951       0.00414740       0.02957682
C        6.63360065       2.11651727      15.80130654       10      -0.00004996      -0.00169871       0.05755592
C        7.84533374       2.81455098      15.81525183       10      -0.00056595      -0.00005001       0.01828284
C        5.42091342       4.21479004      15.77671052       10      -0.00206720       0.00183842       0.02849331
C        6.63390389       4.91410101      15.77939213       10      -0.00146666       0.00008841       0.03406789
C        4.20885583       6.31404881      15.77671052       10       0.00257189      -0.00334624       0.03017841
C        5.42089107       7.01594887      15.77939213       10       0.00037978      -0.00138093       0.04760029
C        2.99781148       8.41480901      15.80130654       10       0.00075508      -0.00023062       0.05816562
C        4.20908380       9.11451705      15.81525183       10      -0.00113670       0.00233121       0.02664488
C       10.26931471       0.01819856      15.83296226       10      -0.00376272      -0.00141975       0.01458950
C       11.47907345       0.71752944      15.83458008       10       0.00238232      -0.00078361       0.02966563
C        9.05755264       2.11517203      15.83296226       10      -0.00118426       0.00134930      -0.00943981
C       10.26915498       2.81215309      15.83458008       10       0.00074028      -0.00477674       0.00150969
C        7.84469977       4.21280870      15.80130654       10      -0.00061500       0.00006739       0.00043438
C        9.05749590       4.90755260      15.81234951       10       0.00463123      -0.00212686       0.03140923
C        6.63590776       6.31618267      15.76478584       10      -0.00172740      -0.00114387       0.02109318
C        7.84355306       7.01371565      15.73245213       10      -0.00118647      -0.00152089       0.00319992
C        5.42017667       8.41475232      15.80130654       10      -0.00131774      -0.00107568       0.05815655
C        6.62847398       9.11788452      15.81234951       10       0.00568505       0.00379988       0.04829793
O       -1.85122647       8.37146279      13.94035445       11      -0.00169729       0.00302208       0.00040915
