132
Lattice="12.12 0.0 0.0 -6.06 10.496227893867395 0.0 0.0 0.0 40.0" Properties=species:S:1:pos:R:3:tags:I:1:forces:R:3 energy=-1209.481698040858 stress="0.002800369785486852 8.119342262407982e-07 1.695090226396187e-06 8.119342262407982e-07 0.002801794568230165 -3.230795369741718e-06 1.695090226396187e-06 -3.230795369741718e-06 0.0021034256698198935" pbc="T T F"
C        0.00326077      -0.00401142      10.00348243        2       0.00180113       0.00188867       0.00293445
Ti      -0.00052778       1.74716047      11.32032885        0       0.00049306      -0.00014601       0.00005602
Ti       1.51788088       0.87163116       8.69370492        0      -0.00043413      -0.00042624      -0.00019990
O        0.00153974       1.74713537       7.77575595        1      -0.00080566      -0.00037878       0.00348154
O        1.51755068       0.87211174      12.23159545        3      -0.00022754       0.00012619       0.14430275
C       -1.51183828       2.62056256      10.01161510        2      -0.00002890      -0.00002169       0.00188855
Ti      -1.51254996       4.36611957      11.31194252        0       0.00149957      -0.00059371      -0.00064930
Ti       0.00560112       3.49717767       8.69453831        0      -0.00317026      -0.00050701      -0.00361612
O       -1.51171409       4.36868295       7.77459749        1       0.00056510      -0.00148784       0.00260431
O        0.00631985       3.49759464      12.23159545        3       0.00056707       0.00145946       0.07367380
C       -3.02696720       5.24389019      10.00419886        2       0.00296699       0.00030872       0.00294689
Ti      -3.02696444       6.99155804      11.31098874        0      -0.00099602      -0.00278736      -0.00036552
Ti      -1.51079274       6.11973102       8.69259414        0       0.00016764      -0.00388542      -0.00182249
O       -3.02634381       6.99323725       7.77196543        1       0.00023622      -0.00177926       0.00307170
O       -1.51195264       6.11501681      12.23159545        3       0.00016430      -0.00146740       0.13263042
C       -4.54148668       7.86800458      10.00254804        2       0.00024486      -0.00147070       0.00110281
Ti      -4.54175477       9.61820964      11.31031609        0      -0.00229112      -0.00201500       0.00087773
Ti      -3.02708718       8.74322954       8.69279177        0       0.00060889      -0.00018756      -0.00511973
O       -4.54149478       9.61897131       7.77140002        1      -0.00063738      -0.00045412       0.00474401
O       -3.02706237       8.74168000      12.23159545        3       0.00054041      -0.00069121       0.11606775
C        3.03289245      -0.00336702      10.00398197        2       0.00130718      -0.00102823       0.00318705
Ti       3.03294192       1.74593879      11.31038039        0       0.00128287       0.00222636       0.00046656
Ti       4.54837893       0.87177622       8.69227142        0      -0.00025068      -0.00158566      -0.00417962
O        3.03269385       1.74563036       7.77135948        1       0.00000670      -0.00028955       0.00424916
O        4.54894132       0.87187675      12.23159545        3       0.00095925      -0.00058670       0.08266828
C        1.51875901       2.62121227      10.00351278        2      -0.00067063      -0.00273408       0.00282500
Ti       1.51984562       4.37130771      11.31060982        0       0.00239597      -0.00080627       0.00072723
Ti       3.03276755       3.49477929       8.69341596        0      -0.00023891      -0.00068906      -0.00232840
O        1.51740824       4.36975764       7.77100322        1       0.00094448      -0.00086531       0.00194012
O        3.03448936       3.49570119      12.23159545        3       0.00045645      -0.00034653       0.07777978
C        0.00643667       5.24649145      10.00155080        2      -0.00370909      -0.00117364       0.00297364
Ti       0.00191193       6.99306478      11.31154121        0      -0.00053609       0.00106712       0.00036499
Ti       1.51780730       6.12010787       8.69229417        0       0.00269955       0.00064133      -0.00277517
O        0.00239334       6.99423062       7.77042753        1       0.00081439      -0.00081509       0.00304382
O        1.51871894       6.12021387      12.23159545        3       0.00049616      -0.00046445       0.12556849
C       -1.51188638       7.86815607      10.00325204        2       0.00000357       0.00021313       0.00122219
Ti      -1.51268166       9.61843283      11.31115173        0       0.00257270      -0.00121644       0.00209966
Ti       0.00267695       8.74357780       8.69237075        0      -0.00044370       0.00005543      -0.00276513
O       -1.51234558       9.61846171       7.77160309        1       0.00001333      -0.00025882       0.00144655
O        0.00316661       8.74390573      12.23159545        3       0.00004963      -0.00042858       0.14403075
C        6.06318117      -0.00316932      10.00272352        2       0.00001451      -0.00062662       0.00117882
Ti       6.06402324       1.74659802      11.30822979        0       0.00103154       0.00108985      -0.00035228
Ti       7.57836417       0.87042158       8.69241833        0       0.00408655       0.00180230      -0.00244855
O        6.06409970       1.74621453       7.77131015        1       0.00167160      -0.00060771       0.00368570
O        7.58128299       0.87276076      12.23159545        3       0.00050051       0.00062061       0.09107133
C        4.54897387       2.62084167      10.00241041        2       0.00109460      -0.00046468       0.00105548
Ti       4.55019675       4.36938216      11.31189831        0       0.00068605      -0.00274746      -0.00040137
Ti       6.06248322       3.49617534       8.69114835        0       0.00169639      -0.00038909      -0.00325145
O        4.54768399       4.36997367       7.77031445        1       0.00104211      -0.00287781       0.00164685
O        6.06384577       3.49617246      12.23159545        3       0.00190667       0.00053097       0.08544106
C        3.03372359       5.24525370      10.00251011        2       0.00063437      -0.00015941       0.00016183
Ti       3.03306439       6.99396625      11.31040588        0      -0.00042521      -0.00046596      -0.00195310
Ti       4.54705741       6.12014715       8.68935126        0      -0.00160888       0.00037354      -0.00335605
O        3.03246803       6.99446111       7.76884193        1      -0.00051746       0.00112677       0.00574060
O        4.54838353       6.11926824      12.23159545        3       0.00015688      -0.00018431       0.06928071
C        1.51745197       7.86919440      10.00260278        2       0.00071934      -0.00037772       0.00032661
Ti       1.51839556       9.62004205      11.31226288        0      -0.00152981      -0.00028385       0.00100621
Ti       3.03249599       8.74329891       8.69204535        0       0.00084881      -0.00218130      -0.00314887
O        1.51768078       9.61853709       7.77071643        1       0.00061933       0.00068096       0.00287378
O        3.03257034       8.74247985      12.23159545        3       0.00021321      -0.00032435       0.11440870
C        9.09311986      -0.00691782      10.00149740        2      -0.00091031       0.00322795       0.00401514
Ti       9.09574630       1.74558518      11.31004806        0       0.00037462      -0.00117109       0.00040925
Ti      10.60806903       0.86867240       8.69415645        0      -0.00225271       0.00239954      -0.00415293
O        9.09446247       1.74673832       7.77434775        1       0.00119580      -0.00041502       0.00204641
O       10.60770744       0.86712662      12.23159545        3      -0.00119272      -0.00103633       0.06140464
C        7.57833033       2.62120755      10.00385595        2       0.00155505      -0.00312556       0.00353747
Ti       7.57729346       4.37010267      11.29858600        0      -0.00171220       0.00041412      -0.00226265
Ti       9.09215629       3.49601054       8.69348932        0       0.00172838      -0.00150768      -0.00391369
O        7.57936516       4.36952112       7.77017250        1      -0.00017172      -0.00049491       0.00527179
O        9.09058409       3.49546150      12.23159545        3      -0.00205513       0.00029379       0.11957861
C        6.06064265       5.24615510      10.00020527        2       0.00038383      -0.00062322       0.00083530
Ti       6.06448380       6.99280087      11.31118446        0       0.00254710       0.00033245       0.00018446
Ti       7.57710503       6.11991764       8.69153736        0       0.00144380      -0.00161265      -0.00283814
O        6.06327334       6.99454905       7.77017603        1       0.00173546       0.00087892       0.00265045
O        7.57754731       6.11857137      12.23159545        3       0.00079333      -0.00300149       0.09554435
C        4.54813113       7.86851194      10.00256370        2      -0.00034321      -0.00071855       0.00088437
Ti       4.54798280       9.61515872      11.31064316        0       0.00207554      -0.00096122       0.00214679
Ti       6.06388701       8.74410633       8.69327745        0       0.00013155       0.00057952      -0.00188781
O        4.54825096       9.61898267       7.77117151        1       0.00056331      -0.00017263       0.00239388
O        6.06364114       8.74148370      12.23159545        3       0.00020238       0.00028767       0.11677692
C        0.06441207       0.05888069      17.42145373       10      -0.00400680       0.00071750      -0.03515888
C        1.27140170       0.76170907      17.42984196       10      -0.00015195       0.00081846       0.01122679
C       -1.12580746       2.14616317      17.39708306       10       0.00045102       0.00055846       0.49745628
C        0.06138379       2.85917781      17.40472180       10       0.00118683       0.00075430      -0.03607504
C       -2.36704489       4.29746197      17.39707751       10      -0.00108139      -0.00181097       0.36095369
C       -1.15677737       4.96876664      17.40471924       10      -0.00156930      -0.00045454      -0.00829185
C       -3.57998999       6.37465923      17.42145318       10      -0.00294885       0.00192268      -0.03317053
C       -2.36741466       7.06650043      17.42984176       10      -0.00172849       0.00155133      -0.02481391
C       -4.79145366       8.46212688      17.41956079       10       0.00050091       0.00255780      -0.03515051
C       -3.57984662       9.16137861      17.43085045       10       0.00394025       0.00346067      -0.03444932
C        2.48286483       0.06233684      17.43187547       10      -0.00019946       0.00128696      -0.02794724
C        3.69167564       0.76284921      17.43085036       10      -0.00089208       0.00202032      -0.03333224
C        1.27654742       2.15885485      17.42145394       10       0.00081567       0.00035042      -0.03355187
C        2.48144952       2.86251538      17.41239381       10      -0.00002516       0.00368451      -0.03021109
C        0.05915905       4.26473150      17.37859392       10      -0.00168090       0.00060150      -0.04139436
C        1.26643412       4.96158670      17.39026387       10      -0.00187274       0.00183903      -0.03823046
C       -1.15563078       6.37266542      17.42145318       10      -0.00203905      -0.00017501      -0.00095960
C        0.05704376       7.06400438      17.41239391       10      -0.00127638       0.00045314      -0.03136493
C       -2.36743302       8.46468883      17.43187568       10      -0.00039294       0.00041692      -0.02172776
C       -1.15635593       9.16139568      17.43085045       10      -0.00234457      -0.00007178      -0.04197866
C        4.90136281       0.06202852      17.43187547       10      -0.00196597      -0.00080820      -0.02086137
C        6.11265979       0.76132110      17.42984196       10      -0.00221051      -0.00025094      -0.02628169
C        3.69116784       2.16202836      17.41956066       10       0.00065024       0.00291633      -0.03945613
C        4.90051923       2.86308717      17.41239381       10       0.00144517       0.00108435      -0.00683794
C        2.47942236       4.26150316      17.39851031       10      -0.00049819       0.00406405      -0.02853926
C        3.69134447       4.96267210      17.39572245       10       0.00161351       0.00060398      -0.04292527
C        1.26657040       6.36296595      17.39851021       10      -0.00061204       0.00073510      -0.00941286
C        2.48005390       7.06192580      17.39572234       10       0.00000748      -0.00043119      -0.03974898
C        0.05529237       8.46190187      17.41956079       10      -0.00252387       0.00039006       0.00636272
C        1.26701009       9.15960689      17.41239366       10      -0.00264873       0.00150406      -0.03076368
C        7.31958361       0.05923015      17.42145373       10      -0.00121662       0.00112944      -0.01916995
C        8.53502312       0.76227147      17.40472161       10      -0.00010028      -0.00067540      -0.00918631
C        6.10546476       2.15777741      17.42145394       10       0.00029114      -0.00027658      -0.02603511
C        7.32214384       2.85792396      17.40472180       10       0.00014491       0.00087355       0.01596608
C        4.90288580       4.26134088      17.39851031       10       0.00146930       0.00039615      -0.00791416
C        6.11630086       4.96254722      17.39026387       10       0.00025425       0.00123549      -0.02897826
C        3.69143344       6.36234165      17.39264445       10       0.00042415      -0.00002111      -0.03847973
C        4.90370455       7.06222148      17.39572234       10      -0.00120927       0.00166261      -0.03566952
C        2.47843805       8.46194129      17.39851004       10      -0.00062606       0.00021435      -0.03062083
C        3.69204826       9.16311633      17.39026346       10       0.00155295      -0.00077658      -0.03983095
C        9.75220363       0.06092487      17.37859387       10      -0.00153237      -0.00221948      -0.03932105
C       10.97025949       0.76121113      17.40472161       10       0.00041622       0.00123899      -0.01593396
C        8.51193162       2.14669331      17.39708306       10      -0.00075090      -0.00158856       0.32369375
C        9.75155901       2.86480349      17.15272380       10      -0.00050119      -0.00251543      -1.73680327
C        7.32438739       4.26526004      17.37859392       10       0.00023967       0.00123373      -0.05089866
C        8.54183058       4.97126892      17.40471924       10       0.00111475       0.00017240       0.00836575
C        6.11700431       6.36367717      17.39851021       10      -0.00353467       0.00125681      -0.02198513
C        7.32651396       7.06490312      17.41239391       10      -0.00270411       0.00155196      -0.01351650
C        4.90456035       8.46194954      17.39851004       10       0.00213855       0.00025988      -0.03033163
C        6.11695567       9.15964038      17.41239366       10       0.00504184       0.00308577      -0.01249190
O        9.82669197       2.82998430      15.59700889       11      -0.00337289      -0.00585016       0.00586517
H        9.05091617       3.28632021      15.21612259       12      -0.00383168       0.00481582      -0.00683316
