130
Lattice="12.12 0.0 0.0 -6.06 10.496227893867395 0.0 0.0 0.0 40.0" Properties=species:S:1:pos:R:3:tags:I:1:forces:R:3 energy=-1202.0445132568989 stress="0.002874828869499231 -2.328163786601827e-07 -4.096887331209864e-07 -2.328163786601827e-07 0.002875061792360975 -7.166403969816481e-07 -4.096887331209864e-07 -7.166403969816481e-07 0.002712627759521665" pbc="T T F"
C       -0.00002029      -0.00006040      10.00541731        2       0.00005282       0.00011509      -0.00456834
Ti      -0.00003968       1.74907790      11.30469497        0      -0.00045163      -0.00141616       0.00625633
Ti       1.51506591       0.87474122       8.71685411        0      -0.00029450      -0.00048205      -0.00193490
O       -0.00001990       1.74938494       7.77914463        1      -0.00000875      -0.00004274       0.00169671
O        1.51556767       0.87483769      12.23008024        3       0.00087867       0.00095879      -0.12119661
C       -1.51492014       2.62379572      10.00534038        2       0.00014783       0.00048584      -0.00435078
Ti      -1.51496561       4.37267846      11.30521081        0      -0.00054322      -0.00047366       0.00634597
Ti      -0.00003032       3.49866561       8.71690174        0      -0.00038890      -0.00037910      -0.00110054
O       -1.51503787       4.37355040       7.77971543        1      -0.00004548      -0.00028839       0.00140891
O       -0.00026286       3.49885131      12.23008024        3       0.00050218       0.00106310      -0.11928484
C       -3.03001753       5.24803644      10.00578278        2       0.00007468      -0.00020248      -0.00420502
Ti      -3.03054909       6.99783257      11.30567031        0      -0.00056925       0.00062331       0.00651774
Ti      -1.51495922       6.12281604       8.71791277        0      -0.00042737      -0.00006830      -0.00123933
O       -3.02991692       6.99736146       7.77980221        1      -0.00012332      -0.00010437       0.00140734
O       -1.51569446       6.12245271      12.23008024        3       0.00048020      -0.00014611      -0.11219849
C       -4.54514552       7.87231966      10.00535976        2       0.00009163      -0.00041048      -0.00466076
Ti      -4.54544216       9.62165441      11.30413231        0      -0.00052536      -0.00038983       0.00649862
Ti      -3.03006984       8.74681775       8.71694072        0      -0.00027717      -0.00015171      -0.00120759
O       -4.54497074       9.62147865       7.77912639        1      -0.00007048       0.00000288       0.00182216
O       -3.03009236       8.74641701      12.23008024        3       0.00065818      -0.00055441      -0.12044626
C        3.02975866      -0.00004883      10.00536220        2       0.00044453       0.00023676      -0.00409933
Ti       3.03010029       1.74936665      11.30469672        0      -0.00128578      -0.00179516       0.00565908
Ti       4.54514866       0.87474196       8.71719521        0      -0.00000041      -0.00026952      -0.00129607
O        3.03012066       1.74940459       7.77936838        1      -0.00011514       0.00000866       0.00147289
O        4.54528539       0.87439116      12.23008024        3       0.00039028       0.00045907      -0.13527618
C        1.51488357       2.62381289      10.00533396        2       0.00033923       0.00070363      -0.00359347
Ti       1.51498800       4.37269576      11.30495585        0      -0.00117289      -0.00057913       0.00513432
Ti       3.03016758       3.49885102       8.71712376        0       0.00000554      -0.00027733      -0.00084685
O        1.51498550       4.37356276       7.77966873        1       0.00005932      -0.00025524       0.00114407
O        3.02996945       3.49890685      12.23008024        3       0.00032843       0.00065846      -0.13586082
C       -0.00004954       5.24794853      10.00604091        2       0.00043079       0.00026252      -0.00333440
Ti      -0.00015229       6.99718086      11.30888001        0      -0.00084174       0.00034773       0.00504038
Ti       1.51490610       6.12282827       8.71788188        0      -0.00010543       0.00009555      -0.00094883
O       -0.00001863       6.99747272       7.78037000        1       0.00000640      -0.00013616       0.00074006
O        1.51528542       6.12254522      12.23008024        3       0.00013741      -0.00046627      -0.10873211
C       -1.51513096       7.87217441      10.00611558        2       0.00065539      -0.00034963      -0.00391123
Ti      -1.51562858       9.62164813      11.30525317        0      -0.00107589      -0.00078716       0.00640494
Ti      -0.00002100       8.74673936       8.71796921        0      -0.00011748       0.00006645      -0.00144666
O       -1.51489034       9.62142708       7.77972893        1      -0.00004105       0.00007187       0.00139246
O       -0.00013635       8.74706566      12.23008024        3       0.00017471      -0.00026368      -0.10841611
C        6.05993278      -0.00011613      10.00579887        2      -0.00019183      -0.00003656      -0.00399241
Ti       6.05991132       1.74914952      11.30662440        0       0.00036981      -0.00078242       0.00635922
Ti       7.57483826       0.87470544       8.71737350        0       0.00015557      -0.00002521      -0.00162163
O        6.06000992       1.74943469       7.77987462        1      -0.00004166      -0.00003597       0.00140005
O        7.57470265       0.87419489      12.23008024        3      -0.00073123      -0.00017302      -0.13507872
C        4.54489639       2.62392786      10.00583513        2      -0.00017024       0.00028054      -0.00353975
Ti       4.54490102       4.37322625      11.30685319        0       0.00042248       0.00032622       0.00540366
Ti       6.06003449       3.49877328       8.71807985        0       0.00026007      -0.00009517      -0.00170011
O        4.54510685       4.37338287       7.77989072        1      -0.00014820      -0.00013184       0.00114514
O        6.06011102       3.49878041      12.23008024        3      -0.00058010       0.00007789      -0.12471742
C        3.02991140       5.24803010      10.00573112        2      -0.00021662      -0.00031857      -0.00314782
Ti       3.03024729       6.99776959      11.30586126        0       0.00061244       0.00136354       0.00578142
Ti       4.54494484       6.12261816       8.71748504        0       0.00029989       0.00014389      -0.00116141
O        3.02986723       6.99738637       7.77985968        1       0.00001205      -0.00015143       0.00119223
O        4.54441035       6.12290076      12.23008024        3      -0.00080532      -0.00111795      -0.13305121
C        1.51497627       7.87216528      10.00617966        2      -0.00033569      -0.00076194      -0.00359225
Ti       1.51548712       9.62142822      11.30576878        0       0.00048036       0.00024902       0.00641286
Ti       3.03002315       8.74684336       8.71706224        0       0.00012798       0.00014737      -0.00135371
O        1.51484871       9.62142896       7.77983266        1       0.00004664      -0.00000012       0.00147283
O        3.02992269       8.74666429      12.23008024        3      -0.00083201      -0.00107409      -0.11741103
C        9.09019327      -0.00007068      10.00542501        2      -0.00046864      -0.00030250      -0.00450676
Ti       9.08985456       1.74920401      11.30498710        0       0.00082423      -0.00071247       0.00696874
Ti      10.60489813       0.87478042       8.71682407        0      -0.00003958      -0.00024907      -0.00215773
O        9.08983705       1.74940312       7.77945903        1      -0.00002804      -0.00014640       0.00180322
O       10.60422106       0.87494370      12.23008024        3      -0.00059719       0.00051442      -0.12163213
C        7.57507289       2.62390115      10.00596768        2      -0.00055013       0.00016121      -0.00421944
Ti       7.57502193       4.37325463      11.30732709        0       0.00065244       0.00051956       0.00632830
Ti       9.08980943       3.49885941       8.71734749        0      -0.00013574      -0.00023268      -0.00144250
O        7.57489844       4.37336808       7.77993784        1      -0.00014065      -0.00023822       0.00135435
O        9.09015526       3.49878474      12.23008024        3      -0.00009381       0.00035110      -0.13456104
C        6.05996624       5.24813302      10.00606855        2      -0.00048508      -0.00055193      -0.00400220
Ti       6.05982678       6.99730004      11.30551022        0       0.00086338       0.00160856       0.00673050
Ti       7.57501661       6.12256901       8.71753892        0      -0.00004064       0.00004307      -0.00138259
O        6.05998087       6.99727253       7.77954993        1      -0.00018256      -0.00008149       0.00155354
O        7.57527670       6.12285487      12.23008024        3       0.00000810      -0.00065199      -0.13304039
C        4.54507588       7.87233639      10.00539687        2      -0.00062599      -0.00079566      -0.00418565
Ti       4.54543385       9.62167026      11.30386739        0       0.00083006       0.00038572       0.00701810
Ti       6.06001830       8.74661256       8.71673765        0       0.00001101       0.00010145      -0.00179686
O        4.54490915       9.62147058       7.77915777        1      -0.00010602      -0.00010089       0.00192836
O        6.05998892       8.74571593      12.23008024        3      -0.00018037      -0.00127059      -0.12358534
C        0.04516149       0.06776111      15.88271182       10      -0.00364958      -0.00248229       0.03778158
C        1.25695830       0.76737398      15.88271182       10       0.00180209       0.00094718       0.03199911
C       -1.16701347       2.16701110      15.88271182       10       0.00080913      -0.00533690       0.04498971
C        0.04497502       2.86654353      15.88271182       10       0.00050945       0.00131602       0.03884230
C       -2.37878093       4.26632009      15.88271182       10      -0.00020367      -0.00314865       0.03759087
C       -1.16671693       4.96599555      15.88271182       10       0.00107174       0.00115459       0.05384171
C       -3.59063234       6.36544990      15.88271182       10      -0.00133781      -0.00320047       0.03796670
C       -2.37859471       7.06514061      15.88271182       10      -0.00147809       0.00231352       0.05567744
C       -4.80296344       8.46466260      15.88271182       10      -0.00148896      -0.00092252       0.04495350
C       -3.59107182       9.16441677      15.88271182       10       0.00458558      -0.00132151       0.03946559
C        2.46907477       0.06756058      15.88271182       10      -0.00219832       0.00204679       0.03849468
C        3.68096807       0.76719150      15.88271182       10      -0.00286896      -0.00318941       0.02703085
C        1.25687907       2.16694624      15.88271182       10       0.00086661      -0.00333275       0.04125964
C        2.46863997       2.86657851      15.88271182       10      -0.00108645       0.00155766       0.02645787
C        0.04506018       4.26608275      15.88271182       10      -0.00118553      -0.00171897       0.02474594
C        1.25693857       4.96585408      15.88271182       10      -0.00070311       0.00197693       0.05477708
C       -1.16651139       6.36549200      15.88271182       10      -0.00608912      -0.00166078       0.03457856
C        0.04535093       7.06517135      15.88271182       10      -0.00193565       0.00079047       0.06657597
C       -2.37897950       8.46457286      15.88271182       10      -0.00113690       0.00176607       0.02373185
C       -1.16704301       9.16432797      15.88271182       10       0.00108933      -0.00548739       0.05900291
C        4.89314603       0.06749733      15.88271182       10      -0.00195900       0.00577073       0.03111053
C        6.10509645       0.76709853      15.88271182       10      -0.00238795      -0.00335869       0.03815729
C        3.68068168       2.16677166      15.88271182       10       0.00208636      -0.00050663       0.04466571
C        4.89254855       2.86655992      15.88271182       10       0.00165021      -0.00181133       0.02194111
C        2.46890634       4.26617504      15.88271182       10       0.00231799       0.00044594       0.03331118
C        3.68067575       4.96608181      15.88271182       10      -0.00201849      -0.00014041       0.03729500
C        1.25719429       6.36536569      15.88271182       10      -0.00132260       0.00200805       0.03330558
C        2.46914540       7.06517399      15.88271182       10      -0.00213193       0.00066051       0.06061302
C        0.04502801       8.46456887      15.88271182       10       0.00267894       0.00394062       0.03299692
C        1.25702501       9.16441172      15.88271182       10       0.00204468      -0.00525019       0.06248941
C        7.31712208       0.06756800      15.88271182       10      -0.00089630       0.00579083       0.03390687
C        8.52926412       0.76720589      15.88271182       10       0.00139182      -0.00131054       0.02890656
C        6.10484944       2.16672555      15.88271182       10       0.00191365      -0.00049689       0.05921040
C        7.31712064       2.86646939      15.88271182       10       0.00635626       0.00198212       0.02146672
C        4.89277705       4.26635631      15.88271182       10       0.00078958      -0.00155384       0.05951542
C        6.10500855       4.96626662      15.88271182       10       0.00160712       0.00216437       0.02051714
C        3.68107032       6.36546156      15.88271182       10       0.00127348      -0.00124221       0.03620816
C        4.89301074       7.06543831      15.88271182       10      -0.00056557       0.00378909       0.02823904
C        2.46895877       8.46459735      15.88271182       10       0.00305175       0.00332462       0.02381242
C        3.68098565       9.16442974      15.88271182       10       0.00231066      -0.00173914       0.04132446
C        9.74124048       0.06762259      15.88271182       10      -0.00442724       0.00132374       0.03742013
C       10.95327692       0.76741684      15.88271182       10       0.00180711       0.00144268       0.03169736
C        8.52916765       2.16679944      15.88271182       10       0.00152954      -0.00242910       0.04610475
C        9.74126818       2.86664239      15.88271182       10       0.00130108       0.00359469       0.02642807
C        7.31722016       4.26629119      15.88271182       10      -0.00105547      -0.00090127       0.05963398
C        8.52942326       4.96602420      15.88271182       10       0.00038830       0.00327439       0.03441340
C        6.10512849       6.36575562      15.88271182       10      -0.00053992      -0.00062478       0.04715868
C        7.31732370       7.06537737      15.88271182       10      -0.00040307       0.00559930       0.02630208
C        4.89303075       8.46474536      15.88271182       10      -0.00177017      -0.00057859       0.04024398
C        6.10501699       9.16459611      15.88271182       10       0.00398123       0.00265836       0.03108189
