131
Lattice="12.12 0.0 0.0 -6.06 10.496227893867395 0.0 0.0 0.0 40.0" Properties=species:S:1:pos:R:3:tags:I:1:forces:R:3 energy=-1205.3811875770916 stress="0.0028640261405950772 -1.1628411147655904e-07 -1.5209807113455021e-07 -1.1628411147655904e-07 0.0028645720728197577 1.1665385362968321e-08 -1.5209807113455021e-07 1.1665385362968321e-08 0.0022182327738057028" pbc="T T F"
C       -0.00342457       0.00184810       9.99899494        2      -0.00034066       0.00013100      -0.00032591
Ti      -0.00077858       1.74888661      11.30033202        0      -0.00037904      -0.00045224      -0.00364269
Ti       1.51437490       0.87560773       8.69467499        0      -0.00038798      -0.00029350       0.00141700
O        0.00207034       1.74928862       7.76719679        1       0.00066620       0.00011504      -0.00133090
O        1.51254267       0.87603940      12.23159545        3      -0.00013248       0.00026007      -0.01597186
C       -1.51501800       2.62332555      10.00019416        2       0.00009950      -0.00007297       0.00009496
Ti      -1.51483739       4.36768080      11.30382679        0       0.00009587       0.00154710       0.00004801
Ti       0.00122008       3.49983256       8.69150097        0      -0.00040906      -0.00040074       0.00106051
O       -1.51506961       4.37697835       7.77082412        1      -0.00012173       0.00091192       0.00050173
O        0.00085063       3.49658665      12.23159545        3      -0.00047971      -0.00106018      -0.02196894
C       -3.03032744       5.24566370      10.00367077        2      -0.00024495      -0.00016555       0.00127061
Ti      -3.02647029       7.00648085      11.33534660        0      -0.00001577       0.00358301       0.00165781
Ti      -1.51518746       6.11971316       8.70046380        0      -0.00019009       0.00029079       0.00183410
O       -3.02805451       7.00041908       7.78182576        1      -0.00019757       0.00002617       0.00093275
O       -1.51390004       6.11194319      12.23159545        3       0.00024677      -0.00050773      -0.03724051
C       -4.54625637       7.87150244      10.01154474        2      -0.00022313       0.00022068       0.00049629
Ti      -4.54729496       9.62289879      11.30790732        0       0.00423084      -0.00248738       0.00501593
Ti      -3.03173080       8.74759882       8.70578074        0       0.00010791      -0.00003352       0.00136171
O       -4.54165901       9.61981105       7.77627354        1       0.00068495      -0.00047446       0.00049050
O       -3.04236492       8.75201393      12.23159545        3      -0.00006612       0.00000509      -0.31812618
C        3.03003947       0.00098799      10.01317714        2      -0.00035323      -0.00004956       0.00034611
Ti       3.02907040       1.74474041      11.31344954        0       0.00010304      -0.00055368      -0.00173028
Ti       4.54726350       0.87485760       8.69922001        0      -0.00058243       0.00012955       0.00153463
O        3.03150714       1.74671623       7.77423646        1      -0.00019477      -0.00001232      -0.00060820
O        4.54707067       0.87763629      12.23159545        3      -0.00024115       0.00163785       0.02067695
C        1.51466397       2.62523476      10.00093094        2      -0.00057109      -0.00053734       0.00078812
Ti       1.51455549       4.37222522      11.30659298        0      -0.00067114      -0.00031765      -0.00241288
Ti       3.03025473       3.49845222       8.69172076        0       0.00005354       0.00033845       0.00079912
O        1.51582404       4.37482122       7.76926493        1      -0.00017948      -0.00009185      -0.00060348
O        3.02997570       3.49760965      12.23159545        3      -0.00019153       0.00070914       0.01775791
C        0.00108614       5.24627422      10.00271115        2      -0.00028374      -0.00017585       0.00148911
Ti      -0.00472986       6.99964835      11.32104520        0      -0.00124653       0.00080227       0.00073961
Ti       1.51349347       6.12368691       8.69444195        0       0.00069418      -0.00051381       0.00151049
O       -0.00388041       6.99992626       7.77850717        1       0.00011482      -0.00014727       0.00091243
O        1.51579474       6.12163196      12.23159545        3       0.00096216      -0.00060860      -0.00054335
C       -1.51513603       7.87218939      10.02576053        2       0.00011468      -0.00005751       0.00014959
Ti      -1.52241786       9.61354991      11.34052441        0      -0.00283791      -0.00186934       0.00118599
Ti       0.00262301       8.74847810       8.70107443        0      -0.00035123      -0.00012654       0.00188441
O       -1.51644003       9.61863511       7.78290172        1      -0.00005191       0.00009328       0.00093822
O        0.00983356       8.75083218      12.23159545        3       0.00076136      -0.00006144      -0.05312374
C        6.06163068       0.00094660      10.00529907        2      -0.00002720       0.00014139       0.00133985
Ti       6.06196075       1.75007614      11.30558802        0      -0.00047363      -0.00069865      -0.00027075
Ti       7.57320745       0.87445055       8.69403854        0       0.00045150       0.00001561       0.00099722
O        6.05817996       1.74822407       7.77054611        1      -0.00050661      -0.00057922       0.00053439
O        7.57859606       0.87714269      12.23159545        3       0.00054894      -0.00015647       0.01807618
C        4.54606960       2.62543400      10.00225202        2       0.00018604      -0.00006785       0.00060652
Ti       4.54541795       4.37332221      11.30636945        0       0.00043235      -0.00046492      -0.00258996
Ti       6.05934088       3.49894778       8.69167571        0       0.00036362      -0.00015204       0.00125075
O        4.54470587       4.37361889       7.76848145        1       0.00028369      -0.00021016      -0.00071087
O        6.05921901       3.49848595      12.23159545        3       0.00029047      -0.00019526       0.03632760
C        3.03074362       5.24775393      10.00304373        2       0.00005095      -0.00001662      -0.00039072
Ti       3.03020793       6.99837330      11.30668655        0       0.00001309       0.00067367      -0.00229264
Ti       4.54520929       6.12280719       8.69157096        0      -0.00031994      -0.00035989       0.00076798
O        3.02913658       6.99628937       7.76940397        1      -0.00007679       0.00014385      -0.00055588
O        4.54594289       6.12413382      12.23159545        3      -0.00055108      -0.00020995       0.01972062
C        1.51689421       7.87196822      10.00333284        2       0.00010521       0.00028022       0.00153020
Ti       1.51958053       9.62484056      11.30482891        0      -0.00134478      -0.00093615       0.00030983
Ti       3.02963324       8.74535430       8.69208356        0       0.00009181       0.00049750       0.00092157
O        1.51174471       9.61991641       7.77168504        1      -0.00085229      -0.00032703       0.00056050
O        3.03199211       8.74730257      12.23159545        3       0.00078778       0.00080817      -0.01993613
C        9.09080038       0.00044644      10.00046483        2       0.00003422      -0.00002231       0.00015385
Ti       9.09154784       1.74904904      11.30444781        0       0.00003027      -0.00014333      -0.00536952
Ti      10.60444674       0.87487942       8.68551262        0       0.00085432      -0.00036940       0.00215538
O        9.08793047       1.75016514       7.76851218        1       0.00010250      -0.00006603      -0.00217230
O       10.60484492       0.87450352      12.23159545        3      -0.00004680       0.00005981      -0.03055352
C        7.57518016       2.62423413      10.00151791        2       0.00072953      -0.00043624       0.00059769
Ti       7.57532914       4.37235697      11.30567882        0       0.00053563       0.00034296      -0.00103120
Ti       9.08909852       3.50035804       8.69274049        0       0.00033413      -0.00035953       0.00131870
O        7.57469367       4.37532366       7.76983911        1       0.00024045       0.00071517       0.00040134
O        9.09024143       3.49587688      12.23159545        3       0.00058178      -0.00047616       0.02216624
C        6.05952427       5.24672697      10.00248600        2       0.00018558      -0.00014124       0.00053117
Ti       6.06336919       7.00057185      11.31302807        0       0.00046858       0.00001276      -0.00193469
Ti       7.57601827       6.12096937       8.69833863        0      -0.00041718       0.00044260       0.00142354
O        6.06262172       6.99746675       7.77360623        1      -0.00014324       0.00021045      -0.00065896
O        7.57480255       6.12083450      12.23159545        3      -0.00145501      -0.00066003       0.02242929
C        4.54382860       7.87186633      10.00096964        2       0.00012008       0.00063865       0.00081528
Ti       4.54480198       9.62249245      11.30116828        0       0.00020106       0.00082502      -0.00370907
Ti       6.05899192       8.74683446       8.69426842        0      -0.00001887       0.00055862       0.00137634
O        4.54575777       9.61975318       7.76734264        1       0.00015632      -0.00059532      -0.00133334
O        6.05766150       8.74842555      12.23159545        3      -0.00056462      -0.00001401      -0.00416998
C        0.04123302       0.06999211      16.82237840       10      -0.00154431      -0.00035128       0.00132586
C        1.24988973       0.77055745      16.80708635       10       0.00327166      -0.00041497       0.02068927
C       -1.16913687       2.16778140      16.82769910       10      -0.00051649      -0.00016328       0.01377972
C        0.04283087       2.86787531      16.80998867       10      -0.00022945      -0.00111204       0.01101801
C       -2.38056921       4.26453890      16.82237840       10      -0.00093445      -0.00183830       0.01876315
C       -1.16974477       4.96110121      16.80708635       10      -0.00064083      -0.00009838       0.01405033
C       -3.58680219       6.36743186      16.75926765       10      -0.00042260      -0.00065228       0.04270477
C       -2.38054553       7.04869553      16.71744543       10      -0.00045397       0.00191113      -0.14369252
C       -4.80057669       8.47022765      16.75926765       10      -0.00180754      -0.00056638       0.06363551
C       -3.60747172       9.17416454      16.71744543       10       0.00417513      -0.00026432      -0.12969972
C        2.46550210       0.06326351      16.75926765       10       0.00154061      -0.00251386       0.06598304
C        3.67981413       0.76856570      16.72718897       10      -0.00054090       0.00023050      -0.01915024
C        1.25512450       2.16814702      16.79604338       10       0.00001406      -0.00115264       0.01351055
C        2.46689001       2.86657356      16.77412897       10      -0.00086261       0.00061379       0.00679030
C        0.04364601       4.26641238      16.79604338       10      -0.00061549      -0.00057790       0.01862972
C        1.25433426       4.96668702      16.77412897       10      -0.00044166       0.00001980       0.00240916
C       -1.17445941       6.36716914      16.75926765       10      -0.00186447       0.00050063       0.04933923
C        0.04351765       7.06617869      16.72718897       10      -0.00072237      -0.00073326      -0.04438112
C       -2.38045224       8.46576373      16.26463977       10       0.00073028       0.00047180       0.09077039
C       -1.15351964       9.17423492      16.71744543       10      -0.00028460      -0.00027640      -0.15252633
C        4.89340789       0.06343047      16.75926765       10      -0.00014121      -0.00016257       0.03906481
C        6.10935222       0.77041573      16.80708635       10       0.00020532       0.00035241       0.02782714
C        3.67967875       2.16431840      16.75952268       10      -0.00063542       0.00063083       0.00075477
C        4.89289644       2.86627101      16.77412897       10       0.00014728       0.00069261       0.01749732
C        2.46804947       4.26673605      16.77144736       10      -0.00075061       0.00051822       0.00266016
C        3.68001576       4.96674673      16.76644659       10      -0.00126397       0.00052730       0.00739142
C        1.25295861       6.36783756      16.75952268       10      -0.00012965       0.00036132      -0.00079511
C        2.46718327       7.06751052      16.77412897       10      -0.00008537       0.00097299       0.00220114
C        0.03974369       8.47033738      16.75926765       10       0.00024102      -0.00040061       0.05586860
C        1.25996782       9.16942056      16.80708635       10       0.00063346       0.00133656       0.00796780
C        7.31765901       0.07009811      16.82237840       10       0.00199393       0.00173915       0.01717273
C        8.52947608       0.76989774      16.82931692       10       0.00184039       0.00199501       0.02349806
C        6.10408018       2.16820261      16.79604338       10       0.00089562       0.00028209       0.00533965
C        7.31606732       2.86722421      16.80998867       10       0.00091695      -0.00012231       0.02120532
C        4.89184403       4.26689840      16.77144736       10      -0.00138309       0.00115789      -0.00509186
C        6.10542573       4.96640347      16.77412897       10      -0.00161304       0.00081367       0.01449104
C        3.68011108       6.36621913      16.77144736       10      -0.00117559       0.00000488       0.00310219
C        4.89220641       7.06736255      16.77412897       10      -0.00110426      -0.00040676       0.00810502
C        2.46848452       8.46607279      16.79604338       10       0.00096804       0.00104231       0.01416922
C        3.67928642       9.16606386      16.80998867       10       0.00084068       0.00095745       0.01592910
C        9.73933930       0.06950898      16.82769910       10      -0.00075776      -0.00079931       0.01176270
C       10.94851124       0.77007527      16.82931692       10       0.00322045       0.00041213       0.00714774
C        8.52789650       2.16768920      16.82769910       10       0.00082781       0.00023660       0.01868812
C        9.73918987       2.86516093      16.82931692       10       0.00081921      -0.00170972       0.02637843
C        7.31569138       4.26642807      16.79604338       10      -0.00216353      -0.00049200       0.00077133
C        8.52873613       4.96092450      16.80708635       10       0.00003462      -0.00214235       0.03106951
C        6.10686637       6.36811092      16.75952268       10      -0.00127468       0.00043452      -0.00454267
C        7.31563313       7.06606557      16.72718897       10       0.00005636      -0.00108981      -0.01469329
C        4.89134297       8.46594000      16.79604338       10      -0.00072198      -0.00121772       0.01552663
C        6.09887394       9.16900174      16.80708635       10       0.00304524       0.00122541       0.01844409
O       -2.38952045       8.46760935      14.94322546       11      -0.00070947       0.00137847      -0.00075835
