132
Lattice="12.12 0.0 0.0 -6.06 10.496227893867395 0.0 0.0 0.0 40.0" Properties=species:S:1:pos:R:3:tags:I:1:forces:R:3 energy=-1210.2915773589464 stress="0.002863286648948721 3.966372481144086e-06 -5.049374164582942e-06 3.966372481144086e-06 0.0028681193410028363 4.729254051344537e-06 -5.049374164582942e-06 4.729254051344537e-06 0.002329659828190835" pbc="T T F"
C        0.00130172      -0.00098333      10.00621447        2      -0.00042010       0.00054090       0.00324097
Ti      -0.00072849       1.74998638      11.30822326        0       0.00031142       0.00030781      -0.00332022
Ti       1.51553105       0.87403847       8.71579530        0      -0.00046554       0.00081236       0.00229835
O       -0.00096305       1.74932581       7.77993633        1      -0.00054917       0.00089984      -0.00033499
O        1.51982762       0.87213935      12.23008024        3      -0.00084841       0.00055415       0.13170910
C       -1.51456215       2.62345259      10.01535905        2      -0.00152106       0.00101409       0.00452145
Ti      -1.51023216       4.37268294      11.30372583        0      -0.00152241       0.00057958      -0.00366221
Ti       0.00170540       3.49802186       8.71859196        0       0.00060839       0.00141113       0.00053145
O       -1.51481236       4.37045031       7.78024249        1       0.00040614       0.00047271      -0.00074430
O        0.00607960       3.49937958      12.23008024        3      -0.00149838       0.00092117       0.07259114
C       -3.02883250       5.24746094      10.00727614        2      -0.00147443       0.00040738       0.00230957
Ti      -3.02949159       6.99637043      11.29548974        0      -0.00166788       0.00103877      -0.00405484
Ti      -1.51357264       6.12137634       8.71567572        0       0.00010318       0.00009485       0.00140374
O       -3.02834545       6.99526056       7.77565065        1      -0.00097625       0.00150780      -0.00127760
O       -1.51427472       6.12647637      12.23008024        3      -0.00112065      -0.00019633       0.11238201
C       -4.54403968       7.87143310      10.00334213        2      -0.00016690       0.00052354       0.00128031
Ti      -4.54380114       9.62069241      11.29423531        0       0.00009993       0.00035351      -0.00242937
Ti      -3.02884203       8.74581340       8.71340420        0      -0.00020007       0.00056705       0.00120225
O       -4.54427124       9.62130941       7.77506204        1       0.00048176      -0.00088515      -0.00051357
O       -3.02842679       8.74712150      12.23008024        3      -0.00079606      -0.00008391       0.10449055
C        3.03113822      -0.00085370      10.00313837        2      -0.00045934       0.00019172       0.00182516
Ti       3.03117772       1.74867193      11.29473880        0       0.00039075       0.00048044      -0.00237236
Ti       4.54620047       0.87369819       8.71374423        0      -0.00063766       0.00081412       0.00109742
O        3.03043921       1.74828394       7.77509866        1       0.00083284       0.00037726      -0.00016640
O        4.54480212       0.87263218      12.23008024        3       0.00025392       0.00132245       0.10148453
C        1.51648886       2.62343541      10.00579570        2      -0.00094110      -0.00007169       0.00306172
Ti       1.51776313       4.37306699      11.29501978        0       0.00190047       0.00096485      -0.00228695
Ti       3.03102190       3.49760744       8.71391761        0      -0.00015165       0.00116830      -0.00010897
O        1.51398627       4.37143727       7.77616320        1      -0.00132351       0.00042363       0.00001335
O        3.03154908       3.49777714      12.23008024        3      -0.00007460      -0.00089668       0.10474740
C        0.00159596       5.24789957      10.00638054        2      -0.00117884      -0.00030387       0.00250572
Ti       0.00167152       6.99745486      11.29484025        0       0.00110416       0.00027339      -0.00284027
Ti       1.51633725       6.12207734       8.71403693        0       0.00017636      -0.00014197       0.00005105
O        0.00034827       6.99566994       7.77503806        1       0.00049238       0.00131055       0.00008101
O        1.51739210       6.12317734      12.23008024        3      -0.00049600       0.00075844       0.10709254
C       -1.51360309       7.87126618      10.00353451        2      -0.00000508       0.00048597       0.00151211
Ti      -1.51424448       9.62080661      11.29532880        0       0.00042244       0.00034703      -0.00168562
Ti       0.00129649       8.74584152       8.71385015        0       0.00018980       0.00005996       0.00099452
O       -1.51357516       9.62055229       7.77436413        1      -0.00052065       0.00034360      -0.00015871
O        0.00030469       8.74674030      12.23008024        3       0.00140610      -0.00037905       0.11920465
C        6.06119520      -0.00104748      10.00392743        2       0.00033040       0.00023213       0.00195927
Ti       6.06122112       1.74940613      11.29577851        0      -0.00281772       0.00182716      -0.00409861
Ti       7.57669348       0.87361378       8.71683826        0      -0.00042535       0.00090683       0.00125675
O        6.06278091       1.74837978       7.77616999        1      -0.00171825       0.00080585      -0.00106038
O        7.57193095       0.87230670      12.23008024        3      -0.00002526       0.00123014       0.11424429
C        4.54565544       2.62343174      10.00347070        2       0.00017660       0.00001728       0.00121973
Ti       4.54470018       4.37308165      11.29420042        0      -0.00038149       0.00048156      -0.00284543
Ti       6.06064914       3.49781398       8.71388993        0      -0.00063568       0.00180861      -0.00072147
O        4.54665706       4.37161817       7.77396053        1      -0.00081339      -0.00023890      -0.00003084
O        6.05821173       3.49717571      12.23008024        3       0.00069218       0.00060734       0.11644111
C        3.03184987       5.24779419      10.00239036        2      -0.00125377       0.00033324       0.00249511
Ti       3.03122783       6.99685082      11.29508149        0      -0.00029817      -0.00042835      -0.00231835
Ti       4.54590464       6.12202182       8.71257581        0      -0.00040167       0.00032252       0.00096865
O        3.03032062       6.99727745       7.77367431        1       0.00015708       0.00014039       0.00067474
O        4.54552241       6.12289579      12.23008024        3      -0.00042510       0.00074472       0.09409143
C        1.51608260       7.87104282      10.00321215        2       0.00049164       0.00066999       0.00165668
Ti       1.51600494       9.62003627      11.29584750        0      -0.00023628      -0.00154469      -0.00316269
Ti       3.03116249       8.74537863       8.71467116        0       0.00044346       0.00007334      -0.00039347
O        1.51683948       9.62192870       7.77581486        1      -0.00049337      -0.00067997      -0.00022878
O        3.03072306       8.74413623      12.23008024        3      -0.00034151       0.00078634       0.10402504
C        9.09102256      -0.00148229      10.00807705        2      -0.00005328       0.00111571       0.00237312
Ti       9.09342624       1.74546568      11.30928594        0      -0.00036084       0.00303495      -0.00406188
Ti      10.60610083       0.87322416       8.71963932        0      -0.00024789      -0.00021863       0.00030185
O        9.09225415       1.74974364       7.78097733        1      -0.00002400      -0.00011614      -0.00056260
O       10.60907490       0.86890020      12.23008024        3      -0.00112095       0.00017787       0.06859291
C        7.57592561       2.62290280      10.00813643        2      -0.00051939       0.00148850       0.00230789
Ti       7.57064991       4.37556776      11.28823876        0      -0.00392453       0.00254526      -0.00496999
Ti       9.09092605       3.49762348       8.72197598        0      -0.00126109       0.00107197       0.00058053
O        7.57837931       4.37097998       7.77743133        1       0.00007801       0.00008265      -0.00202673
O        9.08237477       3.50368559      12.23008024        3      -0.00404126       0.00277307       0.22028528
C        6.05898325       5.24845204      10.00267489        2      -0.00037993       0.00042278       0.00198378
Ti       6.06023839       6.99767908      11.29435482        0      -0.00109136      -0.00034741      -0.00322871
Ti       7.57592380       6.12208678       8.71383578        0      -0.00176124      -0.00045055      -0.00019367
O        6.06198182       6.99670141       7.77405593        1       0.00031029       0.00112116      -0.00022299
O        7.57591550       6.12384315      12.23008024        3      -0.00034825      -0.00010894       0.10853005
C        4.54614997       7.87009282      10.00258837        2      -0.00077754       0.00169298       0.00233786
Ti       4.54673944       9.61981954      11.29622462        0       0.00048082      -0.00152445      -0.00289805
Ti       6.06115193       8.74609617       8.71413671        0      -0.00099428      -0.00034587       0.00058952
O        4.54577353       9.62302848       7.77693644        1      -0.00072972       0.00137917      -0.00056160
O        6.06213597       8.74539021      12.23008024        3       0.00051278       0.00008091       0.10992879
C        0.06362924       0.05617699      16.85151747       10      -0.00284987      -0.00239799      -0.03681745
C        1.27267407       0.75806654      16.85990570       10      -0.00000653      -0.00109234      -0.01296106
C       -1.13170277       2.14638118      16.82714680       10       0.00216966      -0.00237138       0.54359317
C        0.06062768       2.85571553      16.83478554       10       0.00129194      -0.00433496       0.01743562
C       -2.36794734       4.28204739      16.82714125       10       0.00583706      -0.00250797       0.24094575
C       -1.15671717       4.96083342      16.83478298       10       0.00317059      -0.00421614       0.02461767
C       -3.57898152       6.36459606      16.85151692       10      -0.00121305      -0.00267373      -0.00831092
C       -2.36649986       7.06095555      16.85990550       10      -0.00179358      -0.00346762       0.00380566
C       -4.79036008       8.45736279      16.84962453       10       0.00058503       0.00116388      -0.01296950
C       -3.57858192       9.15699676      16.86091419       10       0.00638416       0.00000352      -0.04325211
C        2.48304888       0.05927819      16.86193921       10      -0.00134722       0.00307706      -0.02102488
C        3.69358621       0.75970254      16.86091410       10      -0.00204470      -0.00318338      -0.04148906
C        1.27625847       2.15604217      16.85151768       10       0.00051599      -0.00017678      -0.03124120
C        2.48334703       2.85870247      16.84245755       10      -0.00129566       0.00016986      -0.04124969
C        0.05666170       4.25806313      16.80865766       10       0.00197395      -0.00241142       0.13487405
C        1.26746881       4.95727638      16.82032761       10       0.00058146      -0.00006943      -0.07161188
C       -1.15430330       6.36365680      16.85151692       10      -0.00085273      -0.00396853      -0.02258328
C        0.05767853       7.05865672      16.84245765       10       0.00127840      -0.00055638      -0.03949995
C       -2.36667134       8.45917687      16.86193942       10       0.00176779      -0.00127552      -0.03260061
C       -1.15464202       9.15695483      16.86091419       10       0.00270762      -0.00426461      -0.03088841
C        4.90384208       0.05917183      16.86193921       10       0.00113383       0.00183694      -0.03944704
C        6.11474229       0.75832486      16.85990570       10       0.00090625       0.00110792       0.00884265
C        3.69375726       2.15889299      16.84962440       10      -0.00106253      -0.00116610      -0.01630631
C        4.90424254       2.85901485      16.84245755       10      -0.00114821      -0.00160497      -0.02205568
C        2.48107518       4.25798690      16.82857405       10      -0.00125238       0.00286681      -0.05707879
C        3.69281430       4.95822638      16.82578619       10       0.00060841      -0.00237543      -0.01427814
C        1.26892166       6.35792814      16.82857395       10       0.00056654       0.00160690      -0.04736256
C        2.48082282       7.05762773      16.82578608       10       0.00361363      -0.00084835      -0.01121738
C        0.05701101       8.45724794      16.84962453       10       0.00199973      -0.00084195      -0.01929416
C        1.26858062       9.15591886      16.84245740       10       0.00033247      -0.00082859      -0.03719055
C        7.32464560       0.05701067      16.85151747       10       0.00204117       0.00340858      -0.02016602
C        8.53824576       0.76021489      16.83478535       10       0.00408290      -0.00246120       0.01904719
C        6.11150724       2.15649815      16.85151768       10      -0.00046552       0.00184166      -0.00713972
C        7.32650704       2.85678344      16.83478554       10       0.00297259       0.00006107       0.01989273
C        4.90496141       4.25839976      16.82857405       10      -0.00091601      -0.00135007      -0.03966006
C        6.11818751       4.95793768      16.82032761       10       0.00193242      -0.00180119      -0.05550594
C        3.69294345       6.35803787      16.82270819       10       0.00150868       0.00041630      -0.05373433
C        4.90504542       7.05822256      16.82578608       10       0.00136498       0.00087331      -0.02288978
C        2.48104290       8.45703773      16.82857378       10      -0.00001056       0.00119156      -0.05090188
C        3.69321950       9.15869935      16.82032720       10       0.00100706      -0.00122367      -0.08572881
C        9.75340931       0.06073300      16.80865761       10       0.00054159       0.00027445       0.15162121
C       10.96997517       0.75880607      16.83478535       10       0.00378382      -0.00087767       0.01673220
C        8.52038991       2.14915812      16.82714680       10       0.00248637      -0.00235971       0.23118782
C        9.75263763       2.86024440      16.58278754       10      -0.00076897      -0.00063468      -2.14065027
C        7.32893871       4.25886307      16.80865766       10       0.00298429      -0.00059412       0.13287949
C        8.54216729       4.96201094      16.83478298       10      -0.00001778       0.00038245       0.01765982
C        6.11731208       6.35846915      16.82857395       10      -0.00162937       0.00183977      -0.03849386
C        7.32891787       7.05895737      16.84245765       10      -0.00352072       0.00365198      -0.02994234
C        4.90570055       8.45771845      16.82857378       10      -0.00396865       0.00106226      -0.04087502
C        6.11836766       9.15574448      16.84245740       10       0.00370015       0.00045157      -0.04472671
O        9.83751863       2.79152511      15.01481811       11       0.00001543      -0.00270709       0.00213213
H        9.14217527       3.32150684      14.58009946       12      -0.00561691      -0.00698509      -0.00305570
