132
Lattice="12.12 0.0 0.0 -6.06 10.496227893867395 0.0 0.0 0.0 40.0" Properties=species:S:1:pos:R:3:tags:I:1:forces:R:3 energy=-1208.8379108534987 stress="0.0028274841136109725 2.3791862202834185e-06 -1.0190232977270224e-06 2.3791862202834185e-06 0.002829990948501094 -5.412578378112137e-08 -1.0190232977270224e-06 -5.412578378112137e-08 0.0019669368552322018" pbc="T T F"
C        0.00075056      -0.00172087      10.00261918        2       0.00047673      -0.00159132      -0.00239936
Ti      -0.00116200       1.74850777      11.29793299        0      -0.00111237       0.00108652       0.00409688
Ti       1.51577030       0.87335407       8.71242508        0      -0.00184599       0.00106471      -0.00236833
O        0.00039158       1.74815116       7.77340708        1      -0.00111139      -0.00013195       0.00493594
O        1.51749804       0.87250105      12.23008024        3       0.00112297      -0.00070734       0.07248332
C       -1.51440218       2.62261464      10.00586962        2      -0.00062350       0.00051600      -0.00007143
Ti      -1.51401823       4.37105394      11.29860756        0       0.00279361      -0.00064816       0.00501475
Ti       0.00112680       3.49736167       8.71270246        0       0.00061612      -0.00058486       0.00245245
O       -1.51401754       4.37141618       7.77335947        1      -0.00023906      -0.00086107       0.00573386
O        0.00291406       3.49780611      12.23008024        3      -0.00055582       0.00042564       0.06037684
C       -3.02878911       5.24650948      10.00265533        2      -0.00146485       0.00026635      -0.00199644
Ti      -3.02945410       6.99539035      11.29190562        0       0.00082581      -0.00299676       0.00297164
Ti      -1.51395710       6.12101726       8.71161002        0      -0.00031422       0.00007813       0.00189383
O       -3.02883256       6.99582156       7.77197829        1       0.00044178      -0.00013887       0.00021106
O       -1.51448480       6.12328182      12.23008024        3      -0.00051740      -0.00190018       0.07766645
C       -4.54415190       7.87051288      10.00160201        2      -0.00031758      -0.00048739      -0.00304197
Ti      -4.54439551       9.61980210      11.29195631        0      -0.00135851       0.00196706       0.00172435
Ti      -3.02893591       8.74530179       8.71119969        0      -0.00071534      -0.00148667      -0.00144377
O       -4.54407510       9.62036072       7.77206106        1      -0.00054285      -0.00026027      -0.00061979
O       -3.02890505       8.74577484      12.23008024        3      -0.00029184      -0.00054420       0.08753371
C        3.03079096      -0.00134583      10.00173978        2       0.00048959      -0.00039156      -0.00205742
Ti       3.03096186       1.74818526      11.29179198        0      -0.00232339       0.00050269       0.00177348
Ti       4.54612118       0.87327561       8.71091558        0       0.00115858       0.00089950      -0.00037149
O        3.03063539       1.74774155       7.77199175        1      -0.00019345       0.00002782      -0.00103205
O        4.54593604       0.87380903      12.23008024        3      -0.00045401      -0.00169614       0.08672280
C        1.51595467       2.62271367      10.00260819        2       0.00167553       0.00068447      -0.00340066
Ti       1.51608136       4.37196208      11.29188865        0      -0.00424227      -0.00294004       0.00302743
Ti       3.03074859       3.49729032       8.71125055        0       0.00041205      -0.00146091      -0.00296080
O        1.51548961       4.37178910       7.77231982        1      -0.00317681      -0.00186087      -0.00086871
O        3.03214498       3.49718178      12.23008024        3      -0.00067838      -0.00070728       0.09046976
C        0.00124415       5.24680089      10.00302965        2       0.00127057       0.00066871      -0.00280974
Ti       0.00064928       6.99598065      11.29186310        0      -0.00227733      -0.00327005       0.00325346
Ti       1.51593787       6.12118140       8.71153487        0      -0.00050702       0.00189022      -0.00323581
O        0.00087377       6.99566460       7.77188226        1      -0.00071886       0.00103433      -0.00001515
O        1.51643693       6.12140862      12.23008024        3      -0.00060318      -0.00017605       0.08262127
C       -1.51407628       7.87063659      10.00165077        2      -0.00030095      -0.00023216      -0.00122209
Ti      -1.51441892       9.62058540      11.29189673        0       0.00298132      -0.00241323       0.00156967
Ti       0.00116258       8.74527965       8.71099530        0      -0.00089215       0.00041633       0.00021110
O       -1.51393067       9.61994620       7.77147924        1      -0.00061094       0.00036868       0.00003875
O        0.00012351       8.74588594      12.23008024        3       0.00071370      -0.00122135       0.07257460
C        6.06097180      -0.00146486      10.00162224        2      -0.00016500      -0.00036211      -0.00165640
Ti       6.06144981       1.74873951      11.29166445        0       0.00290161       0.00009902       0.00406273
Ti       7.57615278       0.87316060       8.71232449        0      -0.00084735       0.00000695      -0.00142823
O        6.06140712       1.74767429       7.77199610        1      -0.00038966      -0.00004396       0.00008009
O        7.57329226       0.87222451      12.23008024        3       0.00121646       0.00101246       0.07828933
C        4.54599260       2.62279185      10.00120322        2      -0.00047825       0.00046295      -0.00222700
Ti       4.54626023       4.37200516      11.29084457        0       0.00159276      -0.00206966       0.00339491
Ti       6.06079385       3.49744744       8.71088595        0      -0.00024527      -0.00170444      -0.00282731
O        4.54571339       4.37176165       7.77080927        1       0.00094433      -0.00123267      -0.00041321
O        6.06111247       3.49754799      12.23008024        3      -0.00024562      -0.00014676       0.06513795
C        3.03132070       5.24677618      10.00109276        2       0.00021059       0.00064729      -0.00224259
Ti       3.03107660       6.99540549      11.29124645        0      -0.00155785       0.00202864       0.00163912
Ti       4.54580475       6.12149264       8.70880432        0      -0.00083741      -0.00040422       0.00865910
O        3.03037090       6.99627530       7.77102951        1       0.00102348      -0.00040180      -0.00054979
O        4.54641800       6.12059462      12.23008024        3      -0.00161205       0.00099910       0.08087104
C        1.51588710       7.87049546      10.00178257        2       0.00078940      -0.00089799      -0.00313255
Ti       1.51576887       9.61992950      11.29217720        0       0.00145642       0.00367722       0.00303772
Ti       3.03098348       8.74532719       8.71169603        0      -0.00178137      -0.00100519      -0.00369495
O        1.51619271       9.62029818       7.77220429        1      -0.00091182      -0.00042318      -0.00081513
O        3.03054374       8.74416411      12.23008024        3       0.00009316       0.00012675       0.07671858
C        9.09088255      -0.00211847      10.00343314        2      -0.00037022      -0.00095468      -0.00298523
Ti       9.09177996       1.74725886      11.30018605        0       0.00084245      -0.00279033       0.00371571
Ti      10.60592515       0.87297352       8.71275496        0       0.00097747      -0.00058781       0.00211711
O        9.09130148       1.74799331       7.77384365        1       0.00134361       0.00005271       0.00431045
O       10.60669523       0.87041654      12.23008024        3      -0.00053924       0.00160189       0.04528582
C        7.57611661       2.62239347      10.00290303        2      -0.00124411       0.00101881      -0.00267946
Ti       7.57531227       4.37211095      11.29067576        0      -0.00269928       0.00126217       0.00017442
Ti       9.09071262       3.49728042       8.71388570        0       0.00105918      -0.00004594      -0.00047006
O        7.57618511       4.37180035       7.77249038        1       0.00383939      -0.00189021      -0.00031754
O        9.08858419       3.49768079      12.23008024        3      -0.00186107       0.00187902       0.12002738
C        6.06006492       5.24705408      10.00061529        2      -0.00129467       0.00053067      -0.00187803
Ti       6.06089782       6.99534613      11.29086288        0       0.00312453      -0.00010312       0.00387154
Ti       7.57576161       6.12128286       8.71116257        0       0.00166462       0.00088418      -0.00393153
O        6.06105770       6.99627790       7.77088773        1       0.00105242       0.00005958      -0.00011559
O        7.57554574       6.12070087      12.23008024        3      -0.00017365       0.00056635       0.06932583
C        4.54591863       7.86995012      10.00104869        2      -0.00051029      -0.00065033      -0.00165002
Ti       4.54577824       9.61923483      11.29192061        0       0.00053120       0.00498517       0.00294649
Ti       6.06082252       8.74564399       8.71115405        0       0.00125372      -0.00048990      -0.00170885
O        4.54575816       9.62046646       7.77226086        1       0.00035091       0.00316143       0.00097886
O        6.06134026       8.74408151      12.23008024        3       0.00132993       0.00066911       0.08489783
C        0.06538710       0.05805519      17.70414904       10       0.00231050       0.00143865      -0.03417315
C        1.27465704       0.75996826      17.71253727       10       0.00095419      -0.00143432       0.01105740
C       -1.13019023       2.14834241      17.67977837       10      -0.00199075       0.00328738       0.48797719
C        0.06197326       2.85761734      17.68741711       10      -0.00074175      -0.00216303       0.02747740
C       -2.36565140       4.28496045      17.67977282       10       0.00134632       0.00336016       0.25390051
C       -1.15433492       4.96262729      17.68741455       10       0.00382056      -0.00053763       0.02791952
C       -3.57691319       6.36620032      17.70414849       10      -0.00079251       0.00501855       0.01442327
C       -2.36433496       7.06256277      17.71253707       10      -0.00025416       0.00104538       0.01118376
C       -4.78785464       8.45928637      17.70225610       10       0.00012619       0.00149096      -0.01096304
C       -3.57617717       9.15884844      17.71354576       10      -0.00237256      -0.00230524      -0.01342671
C        2.48518257       0.06110714      17.71457078       10       0.00253204      -0.00534760      -0.02768122
C        3.69566636       0.76136963      17.71354567       10      -0.00006166       0.00053923      -0.01988184
C        1.27784187       2.15818949      17.70414925       10      -0.00153575      -0.00125791      -0.03184204
C        2.48515725       2.86049916      17.69508912       10      -0.00146549      -0.00087908      -0.02575393
C        0.05865873       4.25997881      17.66128923       10       0.00378325      -0.00188632       0.14176542
C        1.26946289       4.95897698      17.67295918       10       0.00451669      -0.00013831      -0.06946778
C       -1.15187818       6.36529559      17.70414849       10      -0.00243876      -0.00113107       0.00904029
C        0.06019799       7.06037935      17.69508922       10      -0.00372931       0.00122204      -0.04150936
C       -2.36441258       8.46067571      17.71457099       10       0.00105946       0.00095142      -0.01587826
C       -1.15244212       9.15847251      17.71354576       10       0.00163889       0.00337857      -0.03078655
C        4.90614318       0.06082017      17.71457078       10      -0.00214769      -0.00142556      -0.02324664
C        6.11693905       0.75992847      17.71253727       10      -0.00199442       0.00097405       0.01679233
C        3.69559305       2.16046104      17.70225597       10      -0.00304168      -0.00141671      -0.00588426
C        4.90611607       2.86038312      17.69508912       10      -0.00210920       0.00247532      -0.03757057
C        2.48309114       4.25990691      17.68120562       10       0.00243766       0.00042811      -0.04017700
C        3.69484912       4.95997567      17.67841776       10       0.00400119      -0.00049482      -0.00688170
C        1.27162128       6.35972645      17.68120552       10      -0.00448049       0.00088079      -0.02725390
C        2.48351493       7.05956638      17.67841765       10      -0.00209998      -0.00164894      -0.00921953
C        0.05932247       8.45898862      17.70225610       10      -0.00183316       0.00059442       0.00376338
C        1.27084486       9.15780483      17.69508897       10       0.00143807      -0.00046482      -0.03905309
C        7.32703670       0.05876565      17.70414904       10      -0.00240296      -0.00324805       0.00264119
C        8.54067738       0.76194576      17.68741692       10      -0.00222101       0.00025446       0.02868740
C        6.11358626       2.15817310      17.70414925       10      -0.00371659      -0.00105525       0.00270303
C        7.32865869       2.85833319      17.68741711       10      -0.00262680      -0.00154869      -0.00711082
C        4.90684445       4.25995440      17.68120562       10       0.00111627       0.00295893      -0.04429296
C        6.12037810       4.95957450      17.67295918       10       0.00200424       0.00063534      -0.05464623
C        3.69544836       6.35979573      17.67533976       10      -0.00241826       0.00047450      -0.04050817
C        4.90749161       7.06014300      17.67841765       10       0.00052274      -0.00374814      -0.01232529
C        2.48328939       8.45899265      17.68120535       10       0.00330712      -0.00192990      -0.02628874
C        3.69544128       9.16092210      17.67295877       10       0.00370414       0.00074616      -0.05861580
C        9.75562764       0.06276856      17.66128918       10       0.00129324      -0.00081679       0.13427204
C       10.97173590       0.76120980      17.68741692       10       0.00047309       0.00088220       0.02592778
C        8.52162008       2.14982060      17.67977837       10       0.00058963      -0.00023788       0.26299251
C        9.75351341       2.86201573      17.43541911       10       0.00025348       0.00175724      -1.99636532
C        7.33112795       4.26058420      17.66128923       10       0.00114915      -0.00130773       0.13334932
C        8.54420897       4.96387205      17.68741455       10      -0.00098022       0.00184652       0.00610121
C        6.11958701       6.36029996      17.68120552       10       0.00045964       0.00063566      -0.03069423
C        7.33119267       7.06086540      17.69508922       10      -0.00114005      -0.00036726      -0.02529148
C        4.90774583       8.45955399      17.68120535       10       0.00253419      -0.00264576      -0.04159369
C        6.12068270       9.15755627      17.69508897       10      -0.00090651       0.00030057      -0.01886347
O        9.82912509       2.81567631      15.84913501       11       0.00472238       0.00511190       0.00003429
H        9.05525866       3.27049250      15.47218076       12       0.00058508       0.00403264       0.00097659
