131
Lattice="12.12 0.0 0.0 -6.06 10.496227893867395 0.0 0.0 0.0 40.0" Properties=species:S:1:pos:R:3:tags:I:1:forces:R:3 energy=-1204.3315687676181 stress="0.002879911631000002 -3.266180190860612e-07 -1.5492732076356407e-06 -3.266180190860612e-07 0.002879773128054451 1.4561176616535663e-06 -1.5492732076356407e-06 1.4561176616535663e-06 0.0020314093855061726" pbc="T T F"
C       -0.00108558       0.00059768      10.00276196        2       0.00002973       0.00015654      -0.00052970
Ti      -0.00069031       1.74961107      11.29145544        0      -0.00014314      -0.00006596      -0.00028866
Ti       1.51480417       0.87442511       8.71320247        0      -0.00007675      -0.00005458      -0.00028344
O        0.00095592       1.74897112       7.77192846        1      -0.00090125       0.00056785       0.00020006
O        1.51331252       0.87847260      12.23008024        3       0.00004846       0.00029050       0.10332710
C       -1.51515227       2.62371153      10.00100343        2      -0.00039042       0.00001522       0.00036665
Ti      -1.51532380       4.37269015      11.29169513        0      -0.00019670       0.00057903       0.00008865
Ti      -0.00014151       3.49887424       8.71090296        0      -0.00051745       0.00005200       0.00027393
O       -1.51531456       4.37542847       7.77316455        1      -0.00011765      -0.00090397      -0.00000077
O        0.00062457       3.49873303      12.23008024        3      -0.00028889       0.00021187       0.11101396
C       -3.03030772       5.24769020      10.00493586        2      -0.00004066       0.00051222      -0.00106996
Ti      -3.02984436       6.99888606      11.31032874        0       0.00015338       0.00107594      -0.00009621
Ti      -1.51542659       6.12274643       8.71609922        0      -0.00021204       0.00029946      -0.00112981
O       -3.02948407       6.99917122       7.77853906        1      -0.00045825      -0.00073499      -0.00276289
O       -1.51319153       6.11864228      12.23008024        3       0.00003673       0.00026570       0.10049193
C       -4.54539724       7.87227130      10.00756179        2       0.00036447       0.00036297      -0.00211820
Ti      -4.54500464       9.62162497      11.30078898        0       0.00084418      -0.00017932       0.00010727
Ti      -3.03000556       8.74692624       8.72030454        0      -0.00022695       0.00013085      -0.00441953
O       -4.54311916       9.62053836       7.77652751        1      -0.00127204       0.00061543      -0.00200708
O       -3.03253610       8.74822319      12.23008024        3      -0.00013040       0.00035668       0.07247466
C        3.02978414       0.00020854      10.00807152        2      -0.00005731      -0.00018889      -0.00248084
Ti       3.02914543       1.75025624      11.29176143        0      -0.00009359      -0.00012802       0.00006258
Ti       4.54508337       0.87415286       8.71514676        0      -0.00030966       0.00010063      -0.00115981
O        3.03029194       1.74791521       7.77361087        1      -0.00048258       0.00096549      -0.00057571
O        4.54570903       0.88016420      12.23008024        3      -0.00023492       0.00028924       0.08853547
C        1.51471549       2.62442884      10.00148366        2      -0.00040975      -0.00012922      -0.00012204
Ti       1.51450445       4.37353435      11.29158521        0      -0.00023714       0.00030902      -0.00027737
Ti       3.02990336       3.49852228       8.71073408        0      -0.00027402       0.00019047      -0.00007664
O        1.51470681       4.37384576       7.77154074        1      -0.00027982       0.00004406       0.00043178
O        3.02984081       3.50011544      12.23008024        3      -0.00021297       0.00007691       0.09005741
C        0.00004864       5.24787243      10.00292103        2      -0.00047728       0.00037525      -0.00037826
Ti      -0.00111829       6.99812830      11.29809671        0      -0.00058863       0.00062195       0.00055261
Ti       1.51436681       6.12312292       8.71193965        0      -0.00018604       0.00013372       0.00019267
O       -0.00173945       6.99857356       7.77588798        1       0.00055238      -0.00036373      -0.00095259
O        1.51729560       6.12138678      12.23008024        3       0.00025279       0.00012467       0.11719973
C       -1.51547516       7.87249342      10.01139098        2      -0.00034568       0.00035679      -0.00275331
Ti      -1.51598430       9.62051258      11.31277022        0      -0.00066458      -0.00022468      -0.00030906
Ti      -0.00018054       8.74727979       8.71642176        0      -0.00037614       0.00005455      -0.00139390
O       -1.51608984       9.62036906       7.77895352        1       0.00033877       0.00061997      -0.00313834
O        0.00489337       8.74676476      12.23008024        3      -0.00011422       0.00019481       0.11074011
C        6.06031428       0.00036569      10.00546519        2      -0.00054597      -0.00009266      -0.00134364
Ti       6.06061272       1.74948189      11.29193268        0      -0.00043611      -0.00006289       0.00000107
Ti       7.57487843       0.87475739       8.71138146        0      -0.00052613      -0.00008060       0.00007615
O        6.05891605       1.74839162       7.77289156        1       0.00049784       0.00076999      -0.00003147
O        7.57622155       0.87564748      12.23008024        3      -0.00057956      -0.00005310       0.08867892
C        4.54490562       2.62439313      10.00179815        2      -0.00015551      -0.00011782      -0.00042414
Ti       4.54485026       4.37344575      11.29191014        0      -0.00018701       0.00026100      -0.00014370
Ti       6.05996129       3.49872800       8.71094601        0       0.00005262      -0.00009159       0.00025517
O        4.54495177       4.37336064       7.77109614        1      -0.00012809       0.00026763       0.00040281
O        6.05892344       3.49925220      12.23008024        3      -0.00012348      -0.00000605       0.07402018
C        3.02974564       5.24820248      10.00104195        2      -0.00022979       0.00020666       0.00010329
Ti       3.02965628       6.99779008      11.29159894        0      -0.00009636       0.00039426      -0.00019142
Ti       4.54506939       6.12292014       8.71061112        0      -0.00020196       0.00019844       0.00021978
O        3.02939758       6.99753183       7.77149340        1       0.00001335       0.00022063       0.00051129
O        4.54366686       6.12232620      12.23008024        3       0.00009416       0.00044135       0.09110310
C        1.51523634       7.87218984      10.00299926        2      -0.00050437       0.00041474      -0.00052283
Ti       1.51588224       9.62228230      11.29138618        0      -0.00049313       0.00007598      -0.00014175
Ti       3.02982635       8.74686312       8.71088306        0      -0.00034482       0.00046824       0.00008575
O        1.51306819       9.62085584       7.77331051        1       0.00084540       0.00050073      -0.00012170
O        3.03073123       8.74610373      12.23008024        3      -0.00020214       0.00038653       0.10548130
C        9.09033828       0.00031739      10.00105867        2      -0.00023613       0.00043314       0.00028283
Ti       9.09001300       1.74952011      11.29119771        0      -0.00013670       0.00013986      -0.00006509
Ti      10.60496580       0.87469426       8.71076033        0      -0.00009119       0.00007955      -0.00105835
O        9.08950381       1.74958065       7.77133158        1      -0.00002961       0.00008342       0.00040622
O       10.60406341       0.87524441      12.23008024        3      -0.00008394       0.00003979       0.10284702
C        7.57498648       2.62418270      10.00132908        2       0.00010837      -0.00003156       0.00038216
Ti       7.57502906       4.37302747      11.29184289        0      -0.00000799       0.00041665      -0.00015357
Ti       9.08986657       3.49884682       8.71131965        0      -0.00011828       0.00041694      -0.00015368
O        7.57518982       4.37474580       7.77264971        1      -0.00033118      -0.00063281       0.00014902
O        9.08983760       3.49780897      12.23008024        3      -0.00005854       0.00049026       0.09006847
C        6.05960341       5.24803063      10.00167275        2       0.00022162       0.00023289      -0.00005682
Ti       6.05868870       6.99767040      11.29153406        0       0.00033211       0.00032071       0.00026167
Ti       7.57545874       6.12301439       8.71457741        0      -0.00015738       0.00015539      -0.00070679
O        6.06123713       6.99796105       7.77326738        1      -0.00088466      -0.00004719       0.00000106
O        7.57079028       6.11992045      12.23008024        3       0.00010640       0.00014970       0.09245035
C        4.54456279       7.87217027      10.00134900        2       0.00011820       0.00054824       0.00003842
Ti       4.54454213       9.62199746      11.29148496        0       0.00012351       0.00027735      -0.00032813
Ti       6.06015136       8.74714052       8.71303060        0       0.00000976       0.00014515       0.00008010
O        4.54571343       9.62096475       7.77186297        1      -0.00077650       0.00041991       0.00031635
O        6.05594649       8.74625083      12.23008024        3       0.00012882       0.00026558       0.09834520
C        0.04155044       0.06966085      17.53138950       10       0.00611241       0.00046501       0.00719526
C        1.25217550       0.76902103      17.51609745       10       0.00044177      -0.00191934       0.02830522
C       -1.16846552       2.16790316      17.53671020       10      -0.00054801       0.00085038      -0.01849573
C        0.04344698       2.86743109      17.51899977       10      -0.00021196       0.00078179      -0.01472007
C       -2.38024069       4.26506744      17.53138950       10      -0.00334133       0.00057000       0.00036017
C       -1.16932079       4.96360749      17.51609745       10      -0.00049292       0.00047566       0.02371360
C       -3.58742728       6.36770144      17.46827875       10      -0.00252514       0.00039988      -0.03058670
C       -2.38032803       7.04898476      17.42645653       10       0.00085412      -0.00101425      -0.44313830
C       -4.80078441       8.46928190      17.46827875       10       0.00368155      -0.00076089      -0.02296866
C       -3.60688307       9.17368759      17.42645653       10      -0.00009186      -0.00208222      -0.46682340
C        2.46602839       0.06359299      17.46827875       10       0.00313242      -0.00254021      -0.02205018
C        3.67930543       0.76651929      17.43620007       10       0.00388355       0.00178866       0.15944983
C        1.25497280       2.16717525      17.50505448       10       0.00145733      -0.00123400      -0.02226793
C        2.46699665       2.86640414      17.48314007       10       0.00054771       0.00071953      -0.04902651
C        0.04280922       4.26696160      17.50505448       10       0.00090592      -0.00134181      -0.03517372
C        1.25443449       4.96695296      17.48314007       10      -0.00164153       0.00027920      -0.04226934
C       -1.17322888       6.36751827      17.46827875       10       0.00126320       0.00096133      -0.03152511
C        0.04209467       7.06697594      17.43620007       10      -0.00009038      -0.00144504       0.17499289
C       -2.37977167       8.46530904      16.97365087       10       0.00162321      -0.00279595       0.23839658
C       -1.15356053       9.17389997      17.42645653       10       0.00068179       0.00145606      -0.44449294
C        4.89276940       0.06372475      17.46827875       10       0.00002777      -0.00344306      -0.03309166
C        6.10675418       0.76885307      17.51609745       10       0.00097899       0.00126182       0.02606639
C        3.67948288       2.16380284      17.46853378       10      -0.00134671       0.00160435      -0.09260163
C        4.89208617       2.86629308      17.48314007       10      -0.00033137       0.00034422      -0.03913277
C        2.46679670       4.26659512      17.48045846       10      -0.00148349       0.00004675      -0.01206753
C        3.67962567       4.96677494      17.47545769       10      -0.00048523       0.00116669      -0.04300891
C        1.25214859       6.36830572      17.46853378       10       0.00086868      -0.00034608      -0.09220369
C        2.46688537       7.06695085      17.48314007       10       0.00117773       0.00102552      -0.03972766
C        0.04014629       8.46924434      17.46827875       10      -0.00001800      -0.00201040      -0.02254250
C        1.25792751       9.16764974      17.51609745       10       0.00035086       0.00368202       0.02872756
C        7.31732663       0.06943794      17.53138950       10      -0.00078161      -0.00183220      -0.00136156
C        8.52864276       0.76883552      17.53832802       10       0.00035905       0.00085267      -0.01436300
C        6.10422135       2.16699631      17.50505448       10      -0.00054128       0.00265961      -0.02184358
C        7.31585399       2.86742760      17.51899977       10      -0.00133505      -0.00108582       0.00193998
C        4.89245503       4.26654227      17.48045846       10      -0.00047620       0.00113954      -0.00182499
C        6.10495139       4.96698853      17.48314007       10      -0.00165086       0.00090373      -0.03849490
C        3.67961601       6.36722933      17.48045846       10      -0.00120493      -0.00057721      -0.01104903
C        4.89233845       7.06709017      17.48314007       10      -0.00022048       0.00118885      -0.04886726
C        2.46733833       8.46624011      17.50505448       10      -0.00193908      -0.00165593      -0.03708416
C        3.67966223       9.16537908      17.51899977       10       0.00090128       0.00230058      -0.01464219
C        9.73941152       0.06848449      17.53671020       10       0.00240844      -0.00051761      -0.01953350
C       10.95024967       0.76905227      17.53832802       10      -0.00022553      -0.00200063      -0.01054913
C        8.52770180       2.16769861      17.53671020       10      -0.00196865       0.00178953      -0.01993134
C        9.73961246       2.86632586      17.53832802       10       0.00313373      -0.00152824      -0.02003021
C        7.31662801       4.26692252      17.50505448       10      -0.00173537      -0.00011790      -0.02197239
C        8.52874433       4.96378420      17.51609745       10       0.00289174      -0.00103132       0.02705649
C        6.10705663       6.36840361      17.46853378       10      -0.00094130      -0.00268751      -0.08540404
C        7.31712201       7.06709040      17.43620007       10       0.00076519      -0.00232716       0.16606460
C        4.89189909       8.46633804      17.50505448       10       0.00203679      -0.00089110      -0.02697070
C        6.10139750       9.16786562      17.51609745       10      -0.00148867      -0.00261439       0.02295012
O       -2.37533337       8.46227564      15.62133759       11      -0.00065793      -0.00389396      -0.00229884
