130
Lattice="12.12 0.0 0.0 -6.06 10.496227893867395 0.0 0.0 0.0 40.0" Properties=species:S:1:pos:R:3:tags:I:1:forces:R:3 energy=-1198.6572767337555 stress="0.0026056254216857934 2.3178334150685586e-07 -4.811448458377865e-07 2.3178334150685586e-07 0.0026048727209266186 -3.8318554573184834e-07 -4.811448458377865e-07 -3.8318554573184834e-07 0.002967903059856258" pbc="T T F"
C       -0.00000856       0.00000540       9.99770995        2      -0.00004410      -0.00001995      -0.00717358
Ti       0.00008789       1.74968997      11.27799212        0      -0.00001025      -0.00062518       0.00022475
Ti       1.51510686       0.87474838       8.70706409        0       0.00020664       0.00008163      -0.00597977
O       -0.00004678       1.74959769       7.76653444        1      -0.00002290      -0.00030644      -0.00364783
O        1.51299526       0.87354117      12.23008024        3       0.00019683       0.00017474      -0.40467885
C       -1.51492752       2.62384975       9.99925285        2       0.00018916      -0.00021078      -0.00639527
Ti      -1.51460963       4.37401715      11.27793392        0       0.00022781      -0.00020911       0.00054690
Ti      -0.00002483       3.49892608       8.70768706        0      -0.00000087       0.00002891      -0.00584769
O       -1.51530203       4.37342132       7.76686353        1      -0.00054485      -0.00043092      -0.00309498
O        0.00015875       3.49746772      12.23008024        3       0.00009383       0.00002501      -0.41722393
C       -3.03009753       5.24802476      10.00012901        2      -0.00005035      -0.00005177      -0.00573405
Ti      -3.02924032       6.99743035      11.27768710        0       0.00014208       0.00044042       0.00102785
Ti      -1.51514425       6.12270881       8.70774628        0      -0.00010362      -0.00013444      -0.00558885
O       -3.03016953       6.99719397       7.76683675        1      -0.00063048      -0.00017062      -0.00302551
O       -1.51452454       6.12295357      12.23008024        3       0.00019320      -0.00015705      -0.43215790
C       -4.54509383       7.87235427       9.99939924        2      -0.00003038       0.00022585      -0.00664205
Ti      -4.54431269       9.62136090      11.27783832        0      -0.00022464      -0.00003188       0.00060529
Ti      -3.02988830       8.74670966       8.70760472        0       0.00011764      -0.00007744      -0.00554505
O       -4.54484003       9.62135838       7.76651680        1      -0.00014335      -0.00005520      -0.00351327
O       -3.03064072       8.74746716      12.23008024        3       0.00013212       0.00000922      -0.42136333
C        3.02992686      -0.00000532       9.99905430        2      -0.00003466      -0.00003199      -0.00652450
Ti       3.03090693       1.74966711      11.27908694        0      -0.00060685      -0.00065881       0.00057062
Ti       4.54509470       0.87482042       8.70866707        0       0.00009052       0.00007512      -0.00466158
O        3.03043675       1.74963429       7.76702419        1       0.00020953       0.00002432      -0.00281915
O        4.54408245       0.87467633      12.23008024        3      -0.00002141      -0.00031937      -0.39618376
C        1.51497121       2.62390411       9.99905850        2      -0.00001348      -0.00008048      -0.00608112
Ti       1.51448080       4.37401097      11.27765994        0      -0.00084480      -0.00017156      -0.00005047
Ti       3.03013803       3.49874273       8.70873906        0       0.00008728       0.00008114      -0.00465697
O        1.51530703       4.37343567       7.76684496        1       0.00020415      -0.00053500      -0.00354647
O        3.02933654       3.49771493      12.23008024        3      -0.00037018       0.00029878      -0.39268817
C       -0.00006350       5.24791367       9.99901670        2      -0.00006463      -0.00008764      -0.00640290
Ti       0.00000428       6.99748067      11.27516293        0      -0.00067020       0.00001191      -0.00042690
Ti       1.51510343       6.12271065       8.70756410        0      -0.00005079      -0.00009265      -0.00608341
O        0.00000575       6.99743441       7.76651087        1      -0.00033056      -0.00009549      -0.00417480
O        1.51396039       6.12320293      12.23008024        3      -0.00036077      -0.00018162      -0.43947961
C       -1.51514621       7.87211171       9.99898046        2       0.00005816      -0.00013387      -0.00684362
Ti      -1.51465486       9.62059242      11.27701544        0      -0.00027733      -0.00070812       0.00040559
Ti      -0.00003085       8.74693853       8.70731628        0      -0.00002193      -0.00010460      -0.00607006
O       -1.51485605       9.62176816       7.76671137        1      -0.00036218       0.00039075      -0.00336047
O       -0.00007901       8.74547071      12.23008024        3      -0.00004786      -0.00046261      -0.44713365
C        6.05996777       0.00018406       9.99994405        2      -0.00015524      -0.00018667      -0.00588258
Ti       6.06031326       1.74877987      11.28021362        0       0.00023667      -0.00049317       0.00107033
Ti       7.57495486       0.87491144       8.70867362        0      -0.00010735       0.00000185      -0.00463151
O        6.06000887       1.74968859       7.76756406        1       0.00005015       0.00048118      -0.00183358
O        7.57575974       0.87466466      12.23008024        3      -0.00012469      -0.00062943      -0.39795337
C        4.54487042       2.62398490      10.00049832        2      -0.00012372      -0.00003232      -0.00447345
Ti       4.54479682       4.37410905      11.28009251        0      -0.00017040       0.00040458       0.00088465
Ti       6.06001000       3.49873325       8.70923702        0      -0.00007884      -0.00000137      -0.00353828
O        4.54525567       4.37330637       7.76764000        1       0.00047201      -0.00019635      -0.00195500
O        6.06056654       3.49957806      12.23008024        3      -0.00031674       0.00000544      -0.41112631
C        3.03013636       5.24796987      10.00005520        2      -0.00034028       0.00002669      -0.00532873
Ti       3.02891938       6.99738543      11.27693387        0      -0.00056403       0.00050399      -0.00003464
Ti       4.54522216       6.12265027       8.70880430        0      -0.00007210      -0.00012500      -0.00455422
O        3.03016054       6.99719417       7.76680630        1       0.00045761      -0.00016518      -0.00355703
O        4.54534052       6.12360282      12.23008024        3      -0.00075616       0.00032884      -0.39675147
C        1.51494160       7.87208659       9.99892273        2      -0.00026060      -0.00027534      -0.00671265
Ti       1.51434192       9.62045502      11.27642886        0      -0.00016650      -0.00057305       0.00017094
Ti       3.02987176       8.74673887       8.70752404        0      -0.00017153      -0.00011306      -0.00599910
O        1.51485375       9.62176921       7.76668908        1       0.00004642       0.00046998      -0.00343863
O        3.03015230       8.74706583      12.23008024        3      -0.00054118      -0.00037936      -0.42816421
C        9.09000821      -0.00006125       9.99918489        2      -0.00009249      -0.00027869      -0.00666608
Ti       9.08974225       1.74909477      11.27937745        0       0.00043089      -0.00055406       0.00120053
Ti      10.60491443       0.87471085       8.70728195        0      -0.00012722      -0.00003561      -0.00583247
O        9.08959888       1.74961811       7.76702933        1      -0.00021281       0.00015997      -0.00245308
O       10.60701745       0.87346249      12.23008024        3      -0.00008207      -0.00019951      -0.40192813
C        7.57520681       2.62397592      10.00039698        2      -0.00002080      -0.00007589      -0.00472204
Ti       7.57526139       4.37379569      11.27995518        0       0.00056140       0.00037408       0.00098798
Ti       9.08987801       3.49869843       8.70880236        0      -0.00018766      -0.00010684      -0.00449093
O        7.57480379       4.37332506       7.76764136        1      -0.00030345      -0.00015621      -0.00162377
O        9.09079482       3.49765995      12.23008024        3       0.00031407      -0.00014759      -0.39358368
C        6.06002905       5.24834211      10.00032500        2      -0.00011804       0.00018191      -0.00460422
Ti       6.05983317       6.99806510      11.27967969        0      -0.00006007       0.00094080       0.00107112
Ti       7.57483838       6.12268059       8.70882147        0      -0.00020861      -0.00011151      -0.00432153
O        6.06000047       6.99703613       7.76710762        1       0.00011994      -0.00022060      -0.00246300
O        7.57452383       6.12384940      12.23008024        3      -0.00000448       0.00035064      -0.39604275
C        4.54497402       7.87227212       9.99934765        2      -0.00022372       0.00006399      -0.00640447
Ti       4.54378422       9.62093559      11.27784818        0      -0.00004119      -0.00005679       0.00056226
Ti       6.05997603       8.74680697       8.70743640        0      -0.00003555      -0.00006501      -0.00564657
O        4.54476033       9.62137067       7.76651738        1       0.00022099       0.00001700      -0.00352470
O        6.05990087       8.74914407      12.23008024        3      -0.00025067       0.00010517      -0.39900811
C        0.04523981       0.06779746      15.03008024       10      -0.00266857      -0.00035477       0.06202651
C        1.25707299       0.76726715      15.03008024       10      -0.00499016      -0.00150493       0.22156349
C       -1.16689513       2.16661305      15.03008024       10       0.00303965       0.00133971       0.10432509
C        0.04483564       2.86676162      15.03008024       10       0.00304364      -0.00198268       0.20063956
C       -2.37869532       4.26605894      15.03008024       10      -0.00042986       0.00066615       0.12948109
C       -1.16639996       4.96611663      15.03008024       10       0.00047124      -0.00072899       0.08666588
C       -3.59056722       6.36558129      15.03008024       10      -0.00326256       0.00179261       0.13223051
C       -2.37811570       7.06531426      15.03008024       10      -0.00179808      -0.00025530       0.07685848
C       -4.80315192       8.46499523      15.03008024       10       0.00280698       0.00023384       0.10989826
C       -3.59085189       9.16426964      15.03008024       10       0.00102238       0.00064058       0.18909554
C        2.46883072       0.06740929      15.03008024       10      -0.00151290      -0.00001229       0.11740799
C        3.68095761       0.76662849      15.03008024       10      -0.00552564      -0.00009556       0.17933753
C        1.25648891       2.16658165      15.03008024       10       0.00377720       0.00133807       0.10627862
C        2.46820373       2.86653710      15.03008024       10       0.00031214       0.00053139       0.18784812
C        0.04511843       4.26592187      15.03008024       10      -0.00140309       0.00030813       0.20087017
C        1.25669659       4.96607447      15.03008024       10      -0.00126516       0.00211571       0.08532500
C       -1.16644209       6.36533528      15.03008024       10      -0.00385084       0.00137525       0.22668059
C        0.04539456       7.06501614      15.03008024       10      -0.00135055       0.00159431       0.00832293
C       -2.37909456       8.46461824      15.03008024       10       0.00215960       0.00098541       0.20844901
C       -1.16690173       9.16363517      15.03008024       10       0.00162088       0.00235180       0.07235406
C        4.89308629       0.06712123      15.03008024       10      -0.00271656       0.00026125       0.16105835
C        6.10507137       0.76667030      15.03008024       10      -0.00010859      -0.00141774       0.10564377
C        3.68042234       2.16651553      15.03008024       10       0.00317388       0.00061620       0.07828136
C        4.89241737       2.86647798      15.03008024       10       0.00391156       0.00005104       0.12661293
C        2.46873487       4.26607905      15.03008024       10       0.00041145      -0.00118579       0.14508632
C        3.68041713       4.96623347      15.03008024       10       0.00005394       0.00127312       0.11076110
C        1.25715476       6.36531063      15.03008024       10      -0.00386922       0.00014897       0.22762619
C        2.46866612       7.06545307      15.03008024       10      -0.00284416      -0.00069195       0.06266217
C        0.04499909       8.46422069      15.03008024       10       0.00029702       0.00193591       0.22528248
C        1.25682574       9.16376801      15.03008024       10       0.00305522       0.00008340       0.05997734
C        7.31722251       0.06727135      15.03008024       10      -0.00147240      -0.00181818       0.16551115
C        8.52930967       0.76677089      15.03008024       10      -0.00134596      -0.00096546       0.16350433
C        6.10471275       2.16675775      15.03008024       10       0.00168856      -0.00159774       0.07923112
C        7.31689819       2.86654666      15.03008024       10       0.00383866      -0.00133326       0.11587749
C        4.89276200       4.26622262      15.03008024       10       0.00191921      -0.00215291       0.07201646
C        6.10498288       4.96598828      15.03008024       10       0.00137417       0.00010568       0.10773569
C        3.68095989       6.36571524      15.03008024       10       0.00002581      -0.00033125       0.15264043
C        4.89285227       7.06565206      15.03008024       10      -0.00363103      -0.00082634       0.16143916
C        2.46899504       8.46476952      15.03008024       10       0.00519042       0.00052090       0.21650418
C        3.68074593       9.16435402      15.03008024       10       0.00189087      -0.00000311       0.17352448
C        9.74144595       0.06754549      15.03008024       10      -0.00084500      -0.00013526       0.12984658
C       10.95328412       0.76725027      15.03008024       10      -0.00209429      -0.00035003       0.22365497
C        8.52907635       2.16665420      15.03008024       10       0.00207093       0.00044264       0.07538527
C        9.74135748       2.86654067      15.03008024       10       0.00361557      -0.00200802       0.18222027
C        7.31706944       4.26617547      15.03008024       10      -0.00006061       0.00066673       0.06475533
C        8.52952858       4.96612559      15.03008024       10       0.00040721      -0.00064896       0.11219119
C        6.10521559       6.36572753      15.03008024       10      -0.00244574       0.00216572       0.07060668
C        7.31751518       7.06566028      15.03008024       10      -0.00294105      -0.00067686       0.17192946
C        4.89297317       8.46497168      15.03008024       10       0.00509266       0.00182320       0.12351088
C        6.10488148       9.16465487      15.03008024       10       0.00290372       0.00074897       0.22398545
