131
Lattice="12.12 0.0 0.0 -6.06 10.496227893867395 0.0 0.0 0.0 40.0" Properties=species:S:1:pos:R:3:tags:I:1:forces:R:3 energy=-1205.5548616123635 stress="0.0029220464001154254 3.952425010274904e-07 -3.67608733754474e-06 3.952425010274904e-07 0.0029230260113663354 2.3650834597775905e-06 -3.67608733754474e-06 2.3650834597775905e-06 0.0023318453716186295" pbc="T T F"
C       -0.00183848       0.00112491      10.00486041        2      -0.00009558       0.00018143      -0.00095073
Ti      -0.00113102       1.74981030      11.29467099        0      -0.00042204      -0.00055221      -0.00049111
Ti       1.51443302       0.87455273       8.71710153        0      -0.00036329      -0.00002315      -0.00008822
O        0.00156643       1.74914894       7.77563087        1      -0.00123479       0.00076783       0.00042226
O        1.51103995       0.88059569      12.23008024        3      -0.00005907       0.00021229       0.11085676
C       -1.51546697       2.62355819      10.00268750        2      -0.00073168       0.00009608       0.00035909
Ti      -1.51534192       4.37181262      11.29600778        0      -0.00056754       0.00048703       0.00043607
Ti      -0.00001558       3.49922361       8.71436259        0      -0.00090680       0.00013199       0.00011115
O       -1.51575445       4.37729821       7.77837717        1      -0.00034660      -0.00103062      -0.00005390
O        0.00059216       3.49840541      12.23008024        3      -0.00060930       0.00010469       0.09855331
C       -3.03047968       5.24846096      10.01039649        2      -0.00023529       0.00106379      -0.00177258
Ti      -3.02913948       7.00159743      11.32580740        0      -0.00011615       0.00141079      -0.00062366
Ti      -1.51603810       6.12289797       8.72328586        0      -0.00044763       0.00053357      -0.00164142
O       -3.02900073       7.00043922       7.78640307        1      -0.00070887      -0.00073111      -0.00418472
O       -1.51139638       6.11510226      12.23008024        3      -0.00035433       0.00013953       0.11012400
C       -4.54632038       7.87200902      10.01339064        2       0.00021148       0.00027304      -0.00330640
Ti      -4.54536299       9.62190188      11.30667590        0       0.00111379      -0.00059697       0.00049928
Ti      -3.03029551       8.74711425       8.72979758        0      -0.00048348       0.00031096      -0.00621680
O       -4.54165757       9.61977353       7.78255160        1      -0.00171397       0.00092939      -0.00253639
O       -3.04064459       8.75147693      12.23008024        3      -0.00105259       0.00076015      -0.11401707
C        3.02955467       0.00093055      10.01434602        2       0.00002206      -0.00024735      -0.00355650
Ti       3.02864409       1.74979926      11.29801245        0      -0.00002947      -0.00036654       0.00008672
Ti       4.54479759       0.87342109       8.72188109        0      -0.00047712       0.00026579      -0.00208594
O        3.03073211       1.74746505       7.77898439        1      -0.00099926       0.00128276      -0.00079609
O        4.54553254       0.88264408      12.23008024        3      -0.00033504       0.00055280       0.13038687
C        1.51454566       2.62470452      10.00415297        2      -0.00069481      -0.00023822      -0.00031031
Ti       1.51469806       4.37306324      11.29628781        0      -0.00072624       0.00016436      -0.00053999
Ti       3.02986466       3.49840129       8.71478472        0      -0.00063405       0.00036679      -0.00040559
O        1.51476986       4.37420805       7.77591303        1      -0.00057008       0.00004342       0.00044730
O        3.02946318       3.50094641      12.23008024        3      -0.00083775       0.00013847       0.10735108
C        0.00036619       5.24795321      10.00671062        2      -0.00095984       0.00049180      -0.00085281
Ti      -0.00040867       6.99755812      11.30683457        0      -0.00119259       0.00085898       0.00116475
Ti       1.51401782       6.12345120       8.71618404        0      -0.00041276       0.00024590       0.00047280
O       -0.00294567       6.99937797       7.78283746        1       0.00052562      -0.00037335      -0.00150323
O        1.51881988       6.12064270      12.23008024        3      -0.00069361       0.00028023       0.12554814
C       -1.51566980       7.87263358      10.02167046        2      -0.00081246       0.00065153      -0.00386032
Ti      -1.51855076       9.61838849      11.32941187        0      -0.00095689      -0.00032868      -0.00127862
Ti      -0.00072101       8.74777524       8.72410933        0      -0.00059595       0.00024221      -0.00221381
O       -1.51691050       9.61939170       7.78700894        1       0.00019589       0.00087141      -0.00472400
O        0.00913211       8.74732450      12.23008024        3      -0.00005293       0.00045073       0.11144089
C        6.05934026      -0.00001981      10.01149014        2      -0.00110973      -0.00020348      -0.00221406
Ti       6.06063068       1.74966977      11.29609231        0      -0.00077971      -0.00007823       0.00000920
Ti       7.57488279       0.87488529       8.71530145        0      -0.00084276      -0.00012394      -0.00028631
O        6.05796990       1.74777617       7.77811580        1       0.00066067       0.00099963      -0.00019726
O        7.57687237       0.87587834      12.23008024        3      -0.00114657       0.00002380       0.11060223
C        4.54472949       2.62447528      10.00539977        2      -0.00044951       0.00001987      -0.00091904
Ti       4.54496162       4.37352473      11.29679493        0      -0.00074452       0.00045179      -0.00063006
Ti       6.05972462       3.49877164       8.71436961        0       0.00001046       0.00000024       0.00024257
O        4.54513350       4.37333290       7.77555370        1      -0.00046466       0.00032801       0.00010800
O        6.05816500       3.49905172      12.23008024        3      -0.00057236       0.00040290       0.14624747
C        3.02990929       5.24831636      10.00400372        2      -0.00064140       0.00033870      -0.00019686
Ti       3.03041706       6.99814040      11.29617904        0      -0.00047607       0.00036395      -0.00050082
Ti       4.54518238       6.12312527       8.71469996        0      -0.00060266       0.00037320      -0.00053935
O        3.02920758       6.99749605       7.77592026        1      -0.00025015       0.00042199       0.00044949
O        4.54340424       6.12254532      12.23008024        3      -0.00051949       0.00053312       0.11163970
C        1.51541123       7.87201658      10.00697299        2      -0.00083809       0.00053136      -0.00097388
Ti       1.51606406       9.62274804      11.29659638        0      -0.00066237       0.00011386       0.00040604
Ti       3.02956791       8.74678939       8.71452512        0      -0.00052875       0.00076832       0.00019788
O        1.51115364       9.62036757       7.77886099        1       0.00085871       0.00085005      -0.00024412
O        3.03120993       8.74701753      12.23008024        3      -0.00032194       0.00054921       0.10579346
C        9.09039071       0.00089523      10.00282999        2      -0.00049864       0.00063593       0.00016836
Ti       9.09026405       1.74945894      11.29540422        0      -0.00035359       0.00008585      -0.00052037
Ti      10.60479590       0.87481836       8.71360334        0      -0.00033053       0.00022783      -0.00166122
O        9.08846316       1.75007713       7.77504622        1      -0.00005372       0.00019850       0.00035334
O       10.60429666       0.87541057      12.23008024        3      -0.00014357       0.00002009       0.10557221
C        7.57506843       2.62413202      10.00399905        2      -0.00006993       0.00004811       0.00019384
Ti       7.57478632       4.37236549      11.29546987        0      -0.00017784       0.00075065      -0.00024093
Ti       9.08973815       3.49887836       8.71497427        0      -0.00026953       0.00070576      -0.00036139
O        7.57511942       4.37571910       7.77762358        1      -0.00043107      -0.00088654       0.00004065
O        9.09016625       3.49730902      12.23008024        3      -0.00050519       0.00075104       0.11013150
C        6.05956782       5.24800744      10.00530615        2      -0.00017529       0.00039077      -0.00073822
Ti       6.05928838       6.99843830      11.29804536        0       0.00015761       0.00029728       0.00007522
Ti       7.57591376       6.12357362       8.72091819        0      -0.00038626       0.00032025      -0.00154476
O        6.06177503       6.99785571       7.77859311        1      -0.00145459       0.00016231      -0.00058333
O        7.56862907       6.11840156      12.23008024        3      -0.00043318       0.00027519       0.13205905
C        4.54432717       7.87235218      10.00411448        2      -0.00015749       0.00063235      -0.00028444
Ti       4.54427392       9.62270009      11.29493975        0       0.00025455       0.00050980      -0.00054369
Ti       6.05989580       8.74738095       8.71710010        0      -0.00015175       0.00040569      -0.00007776
O        4.54583460       9.62043218       7.77565854        1      -0.00115267       0.00068147       0.00045475
O        6.05300654       8.74719700      12.23008024        3      -0.00020893       0.00019790       0.11008732
C        0.04202596       0.06923983      16.82086319       10       0.00756571       0.00053201       0.00522499
C        1.25264251       0.76835885      16.80557114       10       0.00033206      -0.00192016       0.00975468
C       -1.16813652       2.16748488      16.82618389       10      -0.00082865       0.00151862      -0.02059351
C        0.04391932       2.86730174      16.80847346       10      -0.00007507       0.00074888      -0.02126848
C       -2.37995986       4.26499794      16.82086319       10      -0.00345115       0.00118042      -0.00948015
C       -1.16911738       4.96388569      16.80557114       10       0.00012173       0.00030103       0.01885081
C       -3.58693302       6.36777862      16.75775244       10      -0.00231868       0.00072759      -0.02766644
C       -2.37986620       7.05058185      16.71593022       10       0.00174121      -0.00178388      -0.47019814
C       -4.79995731       8.46898476      16.75775244       10       0.00431095      -0.00069924      -0.01488107
C       -3.60452604       9.17233814      16.71593022       10      -0.00053343      -0.00203229      -0.49104188
C        2.46665165       0.06297620      16.75775244       10       0.00385791      -0.00314931      -0.00366188
C        3.67979373       0.76650625      16.72567376       10       0.00463417       0.00205238       0.16602977
C        1.25550242       2.16662892      16.79452817       10       0.00157443      -0.00109823      -0.01847596
C        2.46750061       2.86606930      16.77261376       10       0.00078633       0.00033826      -0.05098013
C        0.04310208       4.26677363      16.79452817       10       0.00129220      -0.00129985      -0.03110427
C        1.25474902       4.96683169      16.77261376       10      -0.00113965      -0.00011450      -0.04132274
C       -1.17304835       6.36764221      16.75775244       10       0.00230682       0.00111534      -0.02313043
C        0.04255050       7.06664286      16.72567376       10       0.00065194      -0.00204661       0.17231308
C       -2.37879921       8.46497919      16.26312456       10       0.00256572      -0.00317288       0.36841774
C       -1.15453176       9.17273862      16.71593022       10       0.00171955       0.00231462      -0.46231925
C        4.89297549       0.06329163      16.75775244       10       0.00072743      -0.00421732      -0.03194487
C        6.10682267       0.76846811      16.80557114       10       0.00164958       0.00169047       0.02011145
C        3.67996693       2.16380663      16.75800747       10      -0.00140067       0.00107600      -0.09749030
C        4.89250067       2.86613915      16.77261376       10      -0.00052545       0.00007097      -0.03575224
C        2.46724304       4.26626292      16.76993215       10      -0.00139916      -0.00031731      -0.01899614
C        3.68003593       4.96648363      16.76493138       10      -0.00014788       0.00097151      -0.04331875
C        1.25262374       6.36793058      16.75800747       10       0.00126082      -0.00056018      -0.09844150
C        2.46702264       7.06659428      16.77261376       10       0.00180878       0.00073852      -0.04404724
C        0.04017455       8.46885310      16.75775244       10       0.00007995      -0.00259950      -0.02241605
C        1.25772746       9.16722138      16.80557114       10       0.00051704       0.00416527       0.02237544
C        7.31734334       0.06913508      16.82086319       10      -0.00066125      -0.00285305      -0.01033796
C        8.52875929       0.76853992      16.82780171       10       0.00047816       0.00056356      -0.02460526
C        6.10441501       2.16683660      16.79452817       10      -0.00041996       0.00277460      -0.03069121
C        7.31592933       2.86742074      16.80847346       10      -0.00191059      -0.00165905       0.00343143
C        4.89291853       4.26631356      16.76993215       10       0.00005716       0.00106034      -0.01036722
C        6.10528792       4.96680572      16.77261376       10      -0.00163139       0.00054519      -0.03643226
C        3.67997164       6.36689189      16.76993215       10      -0.00079858      -0.00053627      -0.01609771
C        4.89271330       7.06674831      16.77261376       10       0.00009149       0.00070083      -0.04900939
C        2.46754436       8.46592954      16.79452817       10      -0.00227952      -0.00215650      -0.03666468
C        3.67988270       9.16492596      16.80847346       10       0.00062649       0.00229718      -0.01450075
C        9.73977073       0.06827810      16.82618389       10       0.00327477      -0.00084504      -0.01883675
C       10.95073139       0.76862452      16.82780171       10      -0.00010668      -0.00255795      -0.02614888
C        8.52783488       2.16755717      16.82618389       10      -0.00216566       0.00205018      -0.02573299
C        9.73988398       2.86614658      16.82780171       10       0.00354563      -0.00193612      -0.01635664
C        7.31686370       4.26691795      16.79452817       10      -0.00138856      -0.00022526      -0.03213778
C        8.52914229       4.96386633      16.80557114       10       0.00349126      -0.00148773       0.02304606
C        6.10719503       6.36799754      16.75800747       10      -0.00010433      -0.00283899      -0.09972128
C        7.31727182       7.06662059      16.72567376       10       0.00145127      -0.00317740       0.16954691
C        4.89251368       8.46605603      16.79452817       10       0.00266743      -0.00107120      -0.02347419
C        6.10210429       9.16763827      16.80557114       10      -0.00215613      -0.00334879       0.00860970
O       -2.37575085       8.46338088      14.90993742       11       0.00557804      -0.00272536       0.00010966
