130
Lattice="12.12 0.0 0.0 -6.06 10.496227893867395 0.0 0.0 0.0 40.0" Properties=species:S:1:pos:R:3:tags:I:1:forces:R:3 energy=-1200.783010925784 stress="0.0028308100391056202 4.7995260978608045e-09 -4.640334968554213e-07 4.7995260978608045e-09 0.0028307379076322136 -7.010508189797837e-07 -4.640334968554213e-07 -7.010508189797837e-07 0.002145106039807087" pbc="T T F"
C       -0.00004091      -0.00007729      10.00011456        2      -0.00001608      -0.00010101       0.00032892
Ti       0.00003663       1.74892765      11.30268921        0      -0.00006926      -0.00034842      -0.00381225
Ti       1.51505262       0.87470383       8.68941382        0       0.00007052      -0.00002308      -0.00249000
O       -0.00002769       1.74943038       7.76756399        1      -0.00017739       0.00000165      -0.00338851
O        1.51479507       0.87433649      12.23159545        3      -0.00035582      -0.00004777      -0.03094055
C       -1.51503406       2.62408118      10.00038975        2       0.00011633      -0.00027925       0.00078729
Ti      -1.51471256       4.37324348      11.30379808        0       0.00020360      -0.00028249      -0.00251381
Ti      -0.00000195       3.49876973       8.68965879        0      -0.00006833      -0.00009084      -0.00188617
O       -1.51512714       4.37343237       7.76782367        1      -0.00034473       0.00001300      -0.00227661
O        0.00030444       3.49806452      12.23159545        3      -0.00001145      -0.00046054      -0.01622774
C       -3.03000877       5.24810360      10.00077679        2       0.00017457      -0.00000998       0.00151559
Ti      -3.02979417       6.99779150      11.30398161        0       0.00009526       0.00006396      -0.00285845
Ti      -1.51499834       6.12278250       8.68984183        0      -0.00008647      -0.00008691      -0.00115794
O       -3.03007320       6.99734596       7.76783579        1      -0.00010643      -0.00034509      -0.00220121
O       -1.51477877       6.12273106      12.23159545        3      -0.00000067      -0.00009126      -0.01300664
C       -4.54492468       7.87208016      10.00040958        2      -0.00006296       0.00023172       0.00094132
Ti      -4.54525180       9.62168739      11.30277539        0      -0.00029658       0.00004019      -0.00386600
Ti      -3.02996787       8.74684583       8.68963915        0      -0.00008620      -0.00006926      -0.00168013
O       -4.54498200       9.62146655       7.76756544        1       0.00001837      -0.00030833      -0.00326489
O       -3.03008365       8.74756185      12.23159545        3      -0.00032899       0.00005009      -0.01570007
C        3.03013218      -0.00007274      10.00020766        2      -0.00023479       0.00000144       0.00063056
Ti       3.02965755       1.74910895      11.30336619        0      -0.00021919      -0.00011292      -0.00323876
Ti       4.54504578       0.87472739       8.68975183        0       0.00010965       0.00006658      -0.00140872
O        3.03012908       1.74948162       7.76771336        1       0.00033645       0.00015717      -0.00297536
O        4.54450780       0.87426459      12.23159545        3      -0.00021839      -0.00013335       0.02648425
C        1.51500672       2.62410382      10.00029378        2      -0.00003297      -0.00030391       0.00051676
Ti       1.51482959       4.37315700      11.30371451        0       0.00008322      -0.00034461      -0.00280048
Ti       3.03007553       3.49877709       8.68983387        0       0.00017349       0.00002014      -0.00141906
O        1.51508586       4.37344503       7.76782341        1       0.00008519       0.00001845      -0.00263971
O        3.02937071       3.49822420      12.23159545        3      -0.00027130      -0.00039644       0.02861767
C       -0.00002081       5.24815674      10.00051068        2       0.00005886      -0.00038793       0.00105651
Ti      -0.00002209       6.99749421      11.30354820        0       0.00003206      -0.00029554      -0.00319346
Ti       1.51500340       6.12277453       8.68985531        0      -0.00007370      -0.00008300      -0.00153219
O       -0.00001031       6.99745203       7.76777215        1      -0.00009597      -0.00011983      -0.00254358
O        1.51468397       6.12246176      12.23159545        3      -0.00022582      -0.00004438      -0.02015179
C       -1.51494250       7.87212913      10.00050908        2      -0.00006174      -0.00003954       0.00102890
Ti      -1.51515043       9.62153806      11.30368116        0      -0.00005092       0.00002587      -0.00313443
Ti      -0.00000786       8.74686441       8.68979707        0      -0.00006666      -0.00004958      -0.00161233
O       -1.51494783       9.62159492       7.76775430        1       0.00005997      -0.00000727      -0.00265092
O       -0.00027086       8.74683081      12.23159545        3      -0.00014998      -0.00011411      -0.02797795
C        6.06000617      -0.00003227      10.00047592        2      -0.00018641      -0.00017955       0.00121373
Ti       6.05992531       1.74910551      11.30433653        0      -0.00002106      -0.00011326      -0.00234900
Ti       7.57494608       0.87470806       8.68980266        0      -0.00002864       0.00002171      -0.00106282
O        6.06003417       1.74954297       7.76789479        1       0.00011720       0.00029961      -0.00206654
O        7.57506399       0.87399510      12.23159545        3       0.00022332      -0.00005641       0.02863103
C        4.54499399       2.62406480      10.00074750        2      -0.00017652      -0.00016913       0.00125870
Ti       4.54475561       4.37347076      11.30436982        0      -0.00004001      -0.00010955      -0.00199464
Ti       6.05999056       3.49873401       8.69014325        0       0.00004690       0.00000066      -0.00044774
O        4.54513836       4.37341044       7.76791653        1       0.00033475       0.00001454      -0.00187645
O        6.05960350       3.49818233      12.23159545        3       0.00024408       0.00006165       0.00621449
C        3.02996729       5.24812826      10.00063011        2      -0.00015971      -0.00013679       0.00129030
Ti       3.02973192       6.99766601      11.30397533        0      -0.00041222      -0.00026002      -0.00273067
Ti       4.54498054       6.12273866       8.68987941        0      -0.00000710      -0.00001566      -0.00087889
O        3.03006860       6.99737983       7.76786066        1       0.00002546      -0.00024069      -0.00235801
O        4.54426056       6.12340881      12.23159545        3      -0.00013860       0.00006505       0.03300361
C        1.51489779       7.87212361      10.00057605        2      -0.00006858      -0.00016380       0.00106911
Ti       1.51499888       9.62138802      11.30380290        0      -0.00029432      -0.00027876      -0.00289343
Ti       3.02996184       8.74684166       8.68971123        0       0.00004552      -0.00002655      -0.00162717
O        1.51496747       9.62161698       7.76779286        1      -0.00014299       0.00008016      -0.00249561
O        3.03003502       8.74717320      12.23159545        3      -0.00002229      -0.00002215      -0.01668341
C        9.08981933      -0.00008515      10.00033807        2      -0.00000855      -0.00013802       0.00073992
Ti       9.09024360       1.74911130      11.30360785        0      -0.00003428      -0.00034701      -0.00314737
Ti      10.60494457       0.87469595       8.68946074        0      -0.00020599       0.00003521      -0.00208636
O        9.08985042       1.74949112       7.76777667        1      -0.00042366       0.00028371      -0.00252602
O       10.60532067       0.87421989      12.23159545        3      -0.00018004      -0.00036993      -0.02161290
C        7.57500506       2.62410544      10.00099025        2      -0.00001861      -0.00017868       0.00150233
Ti       7.57513615       4.37347759      11.30445503        0       0.00014472      -0.00001949      -0.00182329
Ti       9.08992639       3.49878546       8.68987368        0      -0.00018076       0.00003585      -0.00073219
O        7.57489627       4.37339222       7.76790224        1      -0.00015871      -0.00001574      -0.00162970
O        9.09094635       3.49828833      12.23159545        3      -0.00009891      -0.00035368       0.03449504
C        6.06003560       5.24807805      10.00116781        2      -0.00009030       0.00015129       0.00170926
Ti       6.05996069       6.99773467      11.30369253        0      -0.00031323      -0.00002590      -0.00272334
Ti       7.57500629       6.12273441       8.68987364        0       0.00001497      -0.00013723      -0.00054642
O        6.05999667       6.99726043       7.76780406        1       0.00007910      -0.00061180      -0.00221177
O        7.57552648       6.12383876      12.23159545        3      -0.00011917      -0.00003400       0.03646646
C        4.54485780       7.87205186      10.00043515        2      -0.00012574       0.00007403       0.00078669
Ti       4.54524323       9.62163949      11.30290369        0      -0.00034111      -0.00015391      -0.00363805
Ti       6.05999507       8.74678302       8.68949540        0      -0.00003921      -0.00025265      -0.00187904
O        4.54494082       9.62147362       7.76761282        1      -0.00013575      -0.00018062      -0.00310451
O        6.05993280       8.74737081      12.23159545        3      -0.00031276       0.00012515      -0.01638841
C        0.04486192       0.06762081      16.87896387       10       0.00543474       0.00144152      -0.02043705
C        1.25708334       0.76735882      16.87896387       10       0.00287727       0.00220363      -0.02109500
C       -1.16690673       2.16681665      16.87896387       10       0.00020453       0.00000834       0.00528330
C        0.04512149       2.86673986      16.87896387       10      -0.00203496       0.00121338      -0.00189369
C       -2.37921959       4.26592456      16.87896387       10       0.00153823      -0.00129156       0.00855816
C       -1.16708388       4.96578780      16.87896387       10       0.00078378       0.00118989       0.00287314
C       -3.59140167       6.36528428      16.87896387       10       0.00342884      -0.00081362       0.00798992
C       -2.37912876       7.06507584      16.87896387       10       0.00168526      -0.00094455       0.00383094
C       -4.80293785       8.46460836      16.87896387       10       0.00052645      -0.00093111       0.00716596
C       -3.59079534       9.16422537      16.87896387       10      -0.00155013      -0.00146259       0.00143816
C        2.46882773       0.06760919      16.87896387       10       0.00374535       0.00246864      -0.00067089
C        3.68108473       0.76736249      16.87896387       10       0.00350258       0.00085299       0.00462778
C        1.25713552       2.16670827      16.87896387       10      -0.00087679       0.00264370       0.00029598
C        2.46924597       2.86683356      16.87896387       10      -0.00076054      -0.00024646       0.00561268
C        0.04498373       4.26590126      16.87896387       10       0.00010550       0.00113090       0.01022451
C        1.25709080       4.96582329      16.87896387       10       0.00035379       0.00006077      -0.00151151
C       -1.16737771       6.36509585      16.87896387       10       0.00140246       0.00208377      -0.00785867
C        0.04496682       7.06516082      16.87896387       10       0.00076284      -0.00106984      -0.02409339
C       -2.37912209       8.46463006      16.87896387       10      -0.00034872      -0.00048142       0.00815981
C       -1.16693237       9.16447142      16.87896387       10      -0.00046013      -0.00166371      -0.00474021
C        4.89279279       0.06787048      16.87896387       10       0.00210713       0.00097835       0.00622978
C        6.10495934       0.76735914      16.87896387       10       0.00170766       0.00181812       0.01659284
C        3.68109365       2.16688647      16.87896387       10      -0.00131504      -0.00030420       0.00959335
C        4.89329004       2.86665590      16.87896387       10      -0.00086787      -0.00084229       0.00466161
C        2.46922846       4.26594435      16.87896387       10       0.00008737      -0.00050705       0.00782215
C        3.68117685       4.96582643      16.87896387       10       0.00020405       0.00072597       0.01829272
C        1.25722134       6.36512462      16.87896387       10       0.00111955       0.00103986      -0.01036217
C        2.46905902       7.06510742      16.87896387       10       0.00150982       0.00053285       0.00038084
C        0.04510192       8.46497555      16.87896387       10      -0.00151713      -0.00148715      -0.01010953
C        1.25726239       9.16439720      16.87896387       10      -0.00191912      -0.00062653      -0.00385717
C        7.31708356       0.06782645      16.87896387       10       0.00064504       0.00202712       0.00748394
C        8.52873346       0.76739324      16.87896387       10       0.00056340       0.00081319       0.00831053
C        6.10505092       2.16694276      16.87896387       10      -0.00046656       0.00140364      -0.00814053
C        7.31688379       2.86668059      16.87896387       10      -0.00108919      -0.00174429       0.00524943
C        4.89317408       4.26594340      16.87896387       10      -0.00011204       0.00014784      -0.00881196
C        6.10498462       4.96566451      16.87896387       10       0.00006886      -0.00083186       0.00421463
C        3.68128381       6.36529845      16.87896387       10       0.00096316       0.00050764       0.00875366
C        4.89290818       7.06496076      16.87896387       10       0.00101489      -0.00228547       0.01058695
C        2.46952934       8.46472616      16.87896387       10      -0.00335792      -0.00060297       0.00516880
C        3.68123575       9.16437084      16.87896387       10      -0.00361414      -0.00219084       0.00473583
C        9.74096700       0.06773209      16.87896387       10       0.00173761       0.00174904       0.00276164
C       10.95267515       0.76743658      16.87896387       10      -0.00038786       0.00116759      -0.02032722
C        8.52907886       2.16690848      16.87896387       10      -0.00137494       0.00131957       0.00931133
C        9.74097407       2.86680621      16.87896387       10      -0.00313832       0.00115573       0.00927457
C        7.31685872       4.26600177      16.87896387       10      -0.00056302      -0.00081981      -0.01104956
C        8.52887275       4.96576435      16.87896387       10      -0.00128079       0.00165915       0.01998514
C        6.10494568       6.36530975      16.87896387       10       0.00216592      -0.00087385       0.00862520
C        7.31705429       7.06482841      16.87896387       10      -0.00001020       0.00023868       0.01027130
C        4.89335411       8.46465308      16.87896387       10      -0.00267107      -0.00184711       0.00573591
C        6.10522140       9.16407980      16.87896387       10      -0.00522515      -0.00108483      -0.01736893
