130
Lattice="12.12 0.0 0.0 -6.06 10.496227893867395 0.0 0.0 0.0 40.0" Properties=species:S:1:pos:R:3:tags:I:1:forces:R:3 energy=-1200.296007020911 stress="0.0028492433829723075 3.4963767943937854e-08 -2.0488087848063805e-07 3.4963767943937854e-08 0.002849160293282023 -3.081086427133342e-07 -2.0488087848063805e-07 -3.081086427133342e-07 0.0019695116408166968" pbc="T T F"
C       -0.00000284      -0.00001013      10.00114068        2      -0.00004830      -0.00006117       0.00069326
Ti      -0.00001774       1.74933370      11.29090167        0      -0.00004060      -0.00005895       0.00065737
Ti       1.51501063       0.87468850       8.71011535        0       0.00000420      -0.00002031       0.00104471
O        0.00001291       1.74934938       7.77056166        1      -0.00001309      -0.00004878       0.00116193
O        1.51554218       0.87489576      12.23008024        3      -0.00010731      -0.00007662       0.09071486
C       -1.51497910       2.62399788      10.00089893        2      -0.00006254      -0.00002433       0.00072157
Ti      -1.51498625       4.37343196      11.29082274        0      -0.00003127      -0.00005804       0.00058694
Ti      -0.00000510       3.49872367       8.71011631        0      -0.00000220      -0.00004248       0.00094818
O       -1.51495472       4.37345269       7.77054654        1       0.00002083      -0.00002903       0.00105990
O       -0.00026684       3.49874802      12.23008024        3       0.00003479      -0.00006550       0.07825865
C       -3.03004303       5.24807246      10.00083724        2       0.00000030      -0.00002532       0.00065145
Ti      -3.02997437       6.99743596      11.29082148        0      -0.00006671      -0.00006057       0.00057846
Ti      -1.51499247       6.12279840       8.71011542        0       0.00000271      -0.00001476       0.00094429
O       -3.02994617       6.99751136       7.77054659        1       0.00001021       0.00000900       0.00104978
O       -1.51540762       6.12247303      12.23008024        3       0.00000472      -0.00001606       0.08758086
C       -4.54503051       7.87218761      10.00087726        2      -0.00003607      -0.00007174       0.00070091
Ti      -4.54501267       9.62150019      11.29089376        0      -0.00005425      -0.00005904       0.00066000
Ti      -3.03001775       8.74685491       8.71011971        0      -0.00001206      -0.00001100       0.00096937
O       -4.54500340       9.62156077       7.77056316        1      -0.00000977      -0.00000606       0.00114825
O       -3.03019673       8.74643984      12.23008024        3      -0.00005572      -0.00002391       0.07909406
C        3.02995475      -0.00002545      10.00098035        2      -0.00000733      -0.00001053       0.00076951
Ti       3.03004033       1.74939666      11.29083946        0      -0.00003535      -0.00002409       0.00063435
Ti       4.54500276       0.87466129       8.71011350        0      -0.00001019      -0.00001397       0.00097953
O        3.02998459       1.74935044       7.77056482        1      -0.00000840      -0.00004673       0.00115762
O        4.54496954       0.87454893      12.23008024        3      -0.00001974       0.00001001       0.08611964
C        1.51496087       2.62400472      10.00097209        2       0.00000822      -0.00003197       0.00071195
Ti       1.51491124       4.37341897      11.29085552        0      -0.00002013      -0.00009016       0.00060890
Ti       3.02998402       3.49875332       8.71010305        0      -0.00001022      -0.00002039       0.00092306
O        1.51497544       4.37344861       7.77056678        1      -0.00002412      -0.00002568       0.00112225
O        3.02980998       3.49885401      12.23008024        3       0.00001388      -0.00004356       0.08457569
C        0.00000283       5.24816702      10.00106015        2      -0.00003848      -0.00009036       0.00069129
Ti      -0.00000251       6.99748567      11.29093806        0      -0.00005542      -0.00008775       0.00069258
Ti       1.51499281       6.12279580       8.71013123        0      -0.00002797      -0.00003126       0.00099310
O        0.00000879       6.99749846       7.77058751        1       0.00000828       0.00000201       0.00115365
O        1.51538097       6.12241224      12.23008024        3      -0.00005625      -0.00003863       0.08934475
C       -1.51494310       7.87214145      10.00108682        2      -0.00007217      -0.00001898       0.00071763
Ti      -1.51504367       9.62145357      11.29087166        0      -0.00008139       0.00000021       0.00064216
Ti      -0.00000251       8.74684982       8.71013978        0      -0.00002450      -0.00002837       0.00104656
O       -1.51498529       9.62150834       7.77057565        1      -0.00000563      -0.00000678       0.00115915
O       -0.00009351       8.74739251      12.23008024        3      -0.00003014      -0.00014186       0.09095377
C        6.05998561       0.00002772      10.00096165        2      -0.00002071      -0.00004070       0.00075507
Ti       6.06003019       1.74937108      11.29081507        0      -0.00003336      -0.00000207       0.00061342
Ti       7.57499871       0.87465927       8.71009540        0      -0.00002366      -0.00003165       0.00092518
O        6.05998822       1.74934122       7.77053451        1      -0.00003012      -0.00005810       0.00108567
O        7.57515949       0.87454044      12.23008024        3      -0.00006548       0.00002826       0.08425221
C        4.54505532       2.62408868      10.00095570        2      -0.00002262      -0.00002493       0.00064625
Ti       4.54500067       4.37347350      11.29081371        0      -0.00002768      -0.00004509       0.00057887
Ti       6.06000332       3.49874701       8.71003262        0      -0.00002160      -0.00001796       0.00087275
O        4.54497485       4.37342131       7.77052275        1      -0.00004231      -0.00004278       0.00103678
O        6.06008222       3.49885505      12.23008024        3      -0.00003782      -0.00000086       0.06249241
C        3.03001882       5.24806992      10.00090941        2      -0.00002989      -0.00003018       0.00065123
Ti       3.02994725       6.99746746      11.29084701        0      -0.00001716      -0.00011995       0.00059409
Ti       4.54497864       6.12281096       8.71007754        0      -0.00002794      -0.00002129       0.00083867
O        3.02994404       6.99749818       7.77055977        1      -0.00006519      -0.00000964       0.00108628
O        4.54490084       6.12302998      12.23008024        3       0.00001377      -0.00011267       0.08162972
C        1.51493213       7.87213657      10.00111494        2      -0.00000457      -0.00002760       0.00072254
Ti       1.51499717       9.62147367      11.29086458        0      -0.00004603      -0.00003155       0.00065179
Ti       3.03001409       8.74685984       8.71011697        0      -0.00002616      -0.00003030       0.00096114
O        1.51497776       9.62149529       7.77056882        1      -0.00003287      -0.00003776       0.00113411
O        3.03004990       8.74665460      12.23008024        3      -0.00004818      -0.00008891       0.07824219
C        9.09002187      -0.00002600      10.00092948        2      -0.00005163      -0.00003308       0.00076464
Ti       9.08996114       1.74939870      11.29081045        0      -0.00003112      -0.00002916       0.00057930
Ti      10.60498174       0.87469156       8.71010146        0      -0.00000258      -0.00003304       0.00099194
O        9.09000459       1.74933831       7.77053092        1      -0.00001155      -0.00006313       0.00107011
O       10.60442129       0.87484018      12.23008024        3       0.00004853      -0.00009736       0.08892808
C        7.57496211       2.62407874      10.00092037        2      -0.00000634      -0.00003151       0.00061319
Ti       7.57503542       4.37345879      11.29080347        0      -0.00001696      -0.00002696       0.00054868
Ti       9.09001565       3.49874870       8.71006088        0      -0.00001021      -0.00002226       0.00083470
O        7.57500389       4.37342133       7.77049800        1       0.00000285      -0.00002722       0.00098089
O        9.09024766       3.49879786      12.23008024        3      -0.00008860      -0.00003799       0.08111555
C        6.05999927       5.24807903      10.00090783        2      -0.00001836      -0.00001904       0.00055482
Ti       6.06000061       6.99742246      11.29080378        0      -0.00003669      -0.00007918       0.00053938
Ti       7.57501446       6.12280869       8.71005267        0      -0.00001153      -0.00001402       0.00080998
O        6.05998466       6.99750062       7.77051701        1      -0.00002334      -0.00000445       0.00100627
O        7.57513743       6.12299331      12.23008024        3      -0.00007888      -0.00010456       0.07998225
C        4.54500231       7.87218752      10.00089305        2      -0.00002780      -0.00007726       0.00069640
Ti       4.54496197       9.62150237      11.29088060        0      -0.00007303      -0.00010976       0.00063495
Ti       6.05999707       8.74683016       8.71010110        0      -0.00001252      -0.00000999       0.00094904
O        4.54500233       9.62154626       7.77055610        1      -0.00003455      -0.00001465       0.00112154
O        6.05990299       8.74629310      12.23008024        3      -0.00002174      -0.00002241       0.08775988
C        0.04503107       0.06755525      17.58797498       10       0.00041810       0.00030555      -0.02479297
C        1.25708140       0.76734639      17.58797498       10      -0.00312501      -0.00128500      -0.02137230
C       -1.16700205       2.16683345      17.58797498       10       0.00023271       0.00207244      -0.03014987
C        0.04502026       2.86657474      17.58797498       10      -0.00005798      -0.00114586      -0.02769210
C       -2.37892896       4.26604615      17.58797498       10      -0.00095748       0.00058660      -0.02701600
C       -1.16702288       4.96577169      17.58797498       10       0.00083721      -0.00045637      -0.02883159
C       -3.59094284       6.36534862      17.58797498       10      -0.00095199       0.00162525      -0.03023470
C       -2.37905803       7.06509298      17.58797498       10       0.00083941      -0.00189151      -0.02922307
C       -4.80300133       8.46453222      17.58797498       10       0.00124702       0.00075685      -0.02902265
C       -3.59103225       9.16437036      17.58797498       10      -0.00066040      -0.00036253      -0.03067094
C        2.46908466       0.06759813      17.58797498       10       0.00154548       0.00007139      -0.02961013
C        3.68103648       0.76731568      17.58797498       10      -0.00218484      -0.00035915      -0.02737168
C        1.25701597       2.16684859      17.58797498       10       0.00206193       0.00165099      -0.02957447
C        2.46899600       2.86652022      17.58797498       10      -0.00206922       0.00016028      -0.02985949
C        0.04504317       4.26614539      17.58797498       10      -0.00082477       0.00025271      -0.03383731
C        1.25708019       4.96574800      17.58797498       10      -0.00096747       0.00161965      -0.03034379
C       -1.16702520       6.36528815      17.58797498       10      -0.00042865       0.00114888      -0.02067557
C        0.04498454       7.06502166      17.58797498       10       0.00115121       0.00005200      -0.02545477
C       -2.37897791       8.46455907      17.58797498       10       0.00086710       0.00083359      -0.03098670
C       -1.16702800       9.16433154      17.58797498       10       0.00048275       0.00161294      -0.03018277
C        4.89304012       0.06754730      17.58797498       10       0.00006587      -0.00121819      -0.02709850
C        6.10501565       0.76729102      17.58797498       10       0.00080105      -0.00008949      -0.02521680
C        3.68096730       2.16678452      17.58797498       10       0.00145025       0.00012004      -0.02522706
C        4.89296919       2.86653080      17.58797498       10       0.00073738       0.00087032      -0.02652628
C        2.46898798       4.26606881      17.58797498       10       0.00097904      -0.00228574      -0.02520664
C        3.68095910       4.96579881      17.58797498       10      -0.00090315       0.00241627      -0.02743743
C        1.25703888       6.36530165      17.58797498       10      -0.00066217      -0.00075531      -0.02089977
C        2.46907017       7.06506271      17.58797498       10      -0.00136506       0.00002932      -0.03066603
C        0.04499424       8.46454339      17.58797498       10      -0.00071370       0.00021149      -0.02133277
C        1.25700488       9.16433384      17.58797498       10       0.00002003       0.00134787      -0.03017480
C        7.31700696       0.06753986      17.58797498       10      -0.00036697      -0.00148184      -0.03034516
C        8.52904802       0.76729601      17.58797498       10      -0.00074082      -0.00072685      -0.02504127
C        6.10502839       2.16678312      17.58797498       10      -0.00107546       0.00010184      -0.02705797
C        7.31706467       2.86654706      17.58797498       10       0.00050767      -0.00103195      -0.02604109
C        4.89295505       4.26608711      17.58797498       10       0.00104278      -0.00146279      -0.02669952
C        6.10500001       4.96585370      17.58797498       10       0.00089734      -0.00011749      -0.02546970
C        3.68093160       6.36532376      17.58797498       10       0.00216513      -0.00006976      -0.03208622
C        4.89299601       7.06508744      17.58797498       10      -0.00199164      -0.00150341      -0.02641642
C        2.46894722       8.46455860      17.58797498       10       0.00224203       0.00045322      -0.02733070
C        3.68105160       9.16434430      17.58797498       10      -0.00148451       0.00004606      -0.03432273
C        9.74096553       0.06757009      17.58797498       10       0.00080193       0.00046860      -0.02979977
C       10.95303282       0.76732557      17.58797498       10      -0.00114221      -0.00064660      -0.02085984
C        8.52908617       2.16674588      17.58797498       10      -0.00076534       0.00201993      -0.02812053
C        9.74106306       2.86653691      17.58797498       10       0.00101323      -0.00151573      -0.03189052
C        7.31706873       4.26608031      17.58797498       10      -0.00080563       0.00060199      -0.02602597
C        8.52908187       4.96585340      17.58797498       10       0.00101956      -0.00047108      -0.03020425
C        6.10501290       6.36538069      17.58797498       10       0.00013005       0.00127036      -0.03042585
C        7.31703182       7.06514545      17.58797498       10      -0.00013825      -0.00194303      -0.03036203
C        4.89291762       8.46448393      17.58797498       10       0.00322030       0.00139630      -0.02857722
C        6.10497369       9.16427994      17.58797498       10      -0.00031902      -0.00017673      -0.02070813
