130
Lattice="12.12 0.0 0.0 -6.06 10.496227893867395 0.0 0.0 0.0 40.0" Properties=species:S:1:pos:R:3:tags:I:1:forces:R:3 energy=-1200.2516814220828 stress="0.0028121254299514073 1.9404331610329077e-08 7.437606590340866e-08 1.9404331610329077e-08 0.0028121006881536084 1.163110742859191e-07 7.437606590340866e-08 1.163110742859191e-07 0.0020560420387529064" pbc="T T F"
C        0.00002469       0.00004532      10.00173552        2       0.00002875      -0.00002564       0.00202775
Ti      -0.00001768       1.74934440      11.31055134        0       0.00005217      -0.00005100       0.00033874
Ti       1.51503051       0.87470452       8.69000414        0       0.00015953       0.00010535       0.00173754
O        0.00002363       1.74935330       7.76919155        1       0.00004160      -0.00010177       0.00183942
O        1.51588275       0.87522317      12.23159545        3      -0.00012076      -0.00019910       0.13546314
C       -1.51490312       2.62396329      10.00132565        2      -0.00015163       0.00012066       0.00172183
Ti      -1.51501988       4.37341021      11.31036192        0       0.00006843       0.00002210       0.00000778
Ti      -0.00000021       3.49870016       8.69009235        0       0.00002448      -0.00009439       0.00185526
O       -1.51495348       4.37346654       7.76925881        1       0.00014653       0.00008892       0.00174480
O       -0.00024677       3.49891910      12.23159545        3       0.00015996      -0.00019089       0.10996399
C       -3.03008181       5.24805816      10.00135196        2       0.00010228       0.00006485       0.00163106
Ti      -3.03001684       6.99748028      11.31036225        0      -0.00001940       0.00003389      -0.00005905
Ti      -1.51498555       6.12280561       8.69011082        0       0.00008902       0.00002543       0.00181801
O       -3.02994151       6.99751326       7.76926797        1       0.00014304       0.00009840       0.00180060
O       -1.51589990       6.12227325      12.23159545        3       0.00014088       0.00006481       0.11627664
C       -4.54505821       7.87229726      10.00131371        2      -0.00000693      -0.00015671       0.00166634
Ti      -4.54510189       9.62156825      11.31054672        0      -0.00017405       0.00015287       0.00032741
Ti      -3.03004396       8.74687744       8.69012798        0      -0.00009858       0.00008398       0.00185210
O       -4.54498743       9.62157231       7.76920263        1      -0.00007278       0.00012705       0.00188074
O       -3.03026941       8.74650844      12.23159545        3      -0.00004217       0.00017631       0.10864967
C        3.02988010      -0.00001682      10.00147889        2       0.00003189       0.00007564       0.00175710
Ti       3.03023363       1.74951247      11.31039069        0       0.00017531       0.00025034       0.00006995
Ti       4.54500226       0.87464825       8.69013340        0       0.00004811      -0.00007814       0.00179887
O        3.02998050       1.74933890       7.76924534        1      -0.00002189      -0.00004772       0.00178256
O        4.54517340       0.87476916      12.23159545        3      -0.00001313      -0.00008449       0.08317088
C        1.51493011       2.62396507      10.00142573        2       0.00004948       0.00007205       0.00179235
Ti       1.51500767       4.37335655      11.31042391        0      -0.00004042       0.00005165       0.00017464
Ti       3.02997752       3.49876088       8.69009535        0      -0.00003214       0.00009707       0.00173921
O        1.51497541       4.37345089       7.76925056        1      -0.00007551       0.00007434       0.00179963
O        3.03007557       3.49892658      12.23159545        3      -0.00005449       0.00007625       0.08349771
C        0.00004942       5.24824776      10.00162283        2      -0.00007984      -0.00012030       0.00187547
Ti       0.00003813       6.99746450      11.31072518        0      -0.00001223       0.00008353       0.00060769
Ti       1.51499816       6.12279416       8.69007966        0      -0.00000809      -0.00003623       0.00184193
O        0.00000017       6.99749150       7.76923124        1       0.00006021       0.00004791       0.00195386
O        1.51591057       6.12228703      12.23159545        3      -0.00012337       0.00004478       0.12573296
C       -1.51484956       7.87214968      10.00167122        2      -0.00022572       0.00006850       0.00182688
Ti      -1.51509714       9.62153594      11.31048157        0      -0.00009104       0.00001406       0.00018459
Ti      -0.00000519       8.74685614       8.69008544        0      -0.00000544       0.00003541       0.00182431
O       -1.51499318       9.62151200       7.76927096        1       0.00001128      -0.00009588       0.00190451
O        0.00000230       8.74775494      12.23159545        3       0.00003474      -0.00008871       0.13514728
C        6.05998987      -0.00002317      10.00146849        2       0.00007714      -0.00002263       0.00172721
Ti       6.06006275       1.74937122      11.31028018        0      -0.00006074       0.00000021      -0.00002866
Ti       7.57500856       0.87463317       8.69013071        0      -0.00001440      -0.00014493       0.00174254
O        6.06000665       1.74932216       7.76924989        1      -0.00000153      -0.00011372       0.00154671
O        7.57504524       0.87463633      12.23159545        3      -0.00008218       0.00014681       0.08334627
C        4.54506881       2.62411053      10.00141462        2      -0.00002527      -0.00000463       0.00170873
Ti       4.54505789       4.37349231      11.31025964        0       0.00001723      -0.00003964       0.00002984
Ti       6.05999534       3.49873001       8.68992592        0      -0.00002116      -0.00004310       0.00120031
O        4.54498411       4.37344917       7.76922033        1      -0.00003978       0.00002724       0.00147266
O        6.05986737       3.49854995      12.23159545        3       0.00019303       0.00004305       0.05779317
C        3.03003218       5.24808091      10.00138661        2      -0.00002326       0.00003505       0.00169452
Ti       3.03007290       6.99757561      11.31039576        0      -0.00014447      -0.00003100       0.00008216
Ti       4.54495513       6.12283460       8.69008919        0      -0.00016799       0.00004369       0.00166089
O        3.02997083       6.99750733       7.76926488        1      -0.00014032       0.00009213       0.00179245
O        4.54481334       6.12300795      12.23159545        3       0.00019117      -0.00001087       0.08206347
C        1.51489664       7.87212501      10.00167924        2       0.00015243       0.00015672       0.00199640
Ti       1.51512080       9.62154019      11.31044769        0       0.00011224      -0.00012465       0.00019486
Ti       3.03005464       8.74688736       8.69011937        0       0.00016322       0.00009132       0.00184625
O        1.51499525       9.62151683       7.76927807        1      -0.00000191      -0.00014787       0.00182194
O        3.03038703       8.74687217      12.23159545        3       0.00022847       0.00007098       0.11039563
C        9.09014124      -0.00000584      10.00140619        2      -0.00004293       0.00007672       0.00176494
Ti       9.08978784       1.74954524      11.31033361        0      -0.00026549       0.00018937      -0.00007468
Ti      10.60496784       0.87471251       8.69002171        0      -0.00012606       0.00011040       0.00165252
O        9.09000383       1.74934041       7.76924701        1       0.00004118      -0.00005155       0.00163250
O       10.60397060       0.87531411      12.23159545        3       0.00031643       0.00001341       0.12442912
C        7.57494510       2.62415774      10.00148107        2      -0.00001159      -0.00003687       0.00161948
Ti       7.57497402       4.37343591      11.31027249        0      -0.00016524      -0.00004613      -0.00000856
Ti       9.09004140       3.49876820       8.69006622        0       0.00007377       0.00009713       0.00151145
O        7.57501370       4.37343767       7.76919960        1       0.00000940       0.00001854       0.00138713
O        9.09026440       3.49887834      12.23159545        3      -0.00027073       0.00006398       0.08205739
C        6.06004257       5.24799836      10.00151451        2      -0.00003898       0.00002892       0.00167905
Ti       6.06002993       6.99720273      11.31030512        0      -0.00008683      -0.00038812      -0.00012650
Ti       7.57504883       6.12283077       8.69006309        0       0.00014298       0.00002701       0.00148789
O        6.05999257       6.99750622       7.76923417        1      -0.00000340       0.00003106       0.00162252
O        7.57527448       6.12306653      12.23159545        3       0.00001053      -0.00009130       0.08061954
C        4.54507372       7.87230277      10.00134790        2       0.00004965      -0.00010874       0.00166593
Ti       4.54516198       9.62163652      11.31053293        0       0.00026675       0.00013582       0.00026718
Ti       6.06000570       8.74681281       8.69003772        0       0.00001425      -0.00018943       0.00162836
O        4.54500715       9.62155762       7.76920607        1       0.00010943       0.00011026       0.00179789
O        6.05999240       8.74557932      12.23159545        3       0.00024839       0.00038751       0.11724313
C        0.04474257       0.06749793      17.44738492       10       0.00605644       0.00153369      -0.04317143
C        1.25659325       0.76708694      17.44738492       10       0.00346274       0.00209569       0.00370947
C       -1.16678899       2.16675116      17.44738492       10      -0.00115312       0.00062540      -0.04490553
C        0.04516531       2.86609804      17.44738492       10      -0.00253004       0.00158068      -0.03041622
C       -2.37849368       4.26612275      17.44738492       10       0.00094543      -0.00069798      -0.03645744
C       -1.16695090       4.96559560      17.44738492       10       0.00088259       0.00116791      -0.04329470
C       -3.59075637       6.36574069      17.44738492       10       0.00319047      -0.00090094      -0.03719732
C       -2.37917692       7.06518594      17.44738492       10       0.00216825      -0.00115696      -0.04441264
C       -4.80278018       8.46462931      17.44738492       10      -0.00028961      -0.00070171      -0.04387626
C       -3.59115168       9.16447684      17.44738492       10      -0.00277092      -0.00132009      -0.03474927
C        2.46876048       0.06734600      17.44738492       10       0.00466235       0.00200977      -0.04387172
C        3.68027557       0.76697788      17.44738492       10       0.00465355       0.00073684      -0.03330831
C        1.25700206       2.16668405      17.44738492       10      -0.00124467       0.00299638      -0.04452015
C        2.46853502       2.86627569      17.44738492       10      -0.00119625      -0.00022665      -0.03385554
C        0.04498850       4.26623734      17.44738492       10       0.00043092       0.00125928      -0.03871033
C        1.25682886       4.96563598      17.44738492       10       0.00078323      -0.00015424      -0.04387200
C       -1.16689523       6.36541223      17.44738492       10       0.00214603       0.00163231      -0.00938053
C        0.04484112       7.06511519      17.44738492       10       0.00152148      -0.00168424      -0.04345219
C       -2.37863838       8.46443470      17.44738492       10      -0.00097587      -0.00065260      -0.03484234
C       -1.16708361       9.16433525      17.44738492       10      -0.00096639      -0.00141210      -0.04443381
C        4.89268071       0.06705584      17.44738492       10       0.00313014       0.00021153      -0.03376371
C        6.10481650       0.76675357      17.44738492       10       0.00233111       0.00210681      -0.04383524
C        3.68068836       2.16654755      17.44738492       10      -0.00170546      -0.00021565      -0.04435979
C        4.89276214       2.86626651      17.44738492       10      -0.00191182      -0.00037051      -0.03371841
C        2.46849176       4.26619906      17.44738492       10       0.00010722      -0.00079194      -0.03494458
C        3.68054684       4.96597145      17.44738492       10      -0.00013570       0.00066140      -0.04254837
C        1.25663107       6.36543913      17.44738492       10       0.00183149       0.00027860      -0.00217887
C        2.46889221       7.06513891      17.44738492       10       0.00163631       0.00006795      -0.04564940
C        0.04512756       8.46446178      17.44738492       10      -0.00232374      -0.00214740       0.00323435
C        1.25731485       9.16422138      17.44738492       10      -0.00305917      -0.00030302      -0.04524147
C        7.31697286       0.06688912      17.44738492       10       0.00091679       0.00134509      -0.03469126
C        8.52926441       0.76691755      17.44738492       10       0.00085792       0.00067765      -0.03473941
C        6.10509398       2.16626179      17.44738492       10      -0.00154256       0.00164015      -0.03411557
C        7.31745256       2.86630625      17.44738492       10      -0.00215531      -0.00163855      -0.03303415
C        4.89265928       4.26618441      17.44738492       10      -0.00077925       0.00004732      -0.03355711
C        6.10495208       4.96623629      17.44738492       10      -0.00040521      -0.00132640      -0.03207548
C        3.68040333       6.36570056      17.44738492       10       0.00114221       0.00010218      -0.03686605
C        4.89273107       7.06571104      17.44738492       10       0.00120861      -0.00307629      -0.03575096
C        2.46900521       8.46441827      17.44738492       10      -0.00460677      -0.00086243      -0.02947941
C        3.68154152       9.16452439      17.44738492       10      -0.00467915      -0.00205253      -0.03972275
C        9.74080316       0.06737959      17.44738492       10       0.00257778       0.00130209      -0.04306237
C       10.95308710       0.76713647      17.44738492       10       0.00020745       0.00067305      -0.00295406
C        8.52954490       2.16643635      17.44738492       10      -0.00216479       0.00118984      -0.04298731
C        9.74174329       2.86623242      17.44738492       10      -0.00319194       0.00097850      -0.03637628
C        7.31733603       4.26623870      17.44738492       10      -0.00084260      -0.00120674      -0.03232609
C        8.52946471       4.96602422      17.44738492       10      -0.00096013       0.00077648      -0.04133220
C        6.10478896       6.36593285      17.44738492       10       0.00251192      -0.00165236      -0.04212405
C        7.31698898       7.06567550      17.44738492       10       0.00112417      -0.00061520      -0.03656735
C        4.89309127       8.46469510      17.44738492       10      -0.00352106      -0.00215486      -0.04250434
C        6.10525807       9.16464712      17.44738492       10      -0.00615661      -0.00156251      -0.00867987
