130
Lattice="12.12 0.0 0.0 -6.06 10.496227893867395 0.0 0.0 0.0 40.0" Properties=species:S:1:pos:R:3:tags:I:1:forces:R:3 energy=-1202.1860837983395 stress="0.002902521044818379 -1.4006190482293102e-07 3.4674181865835225e-07 -1.4006190482293102e-07 0.0029024709861144677 6.195023273910725e-07 3.4674181865835225e-07 6.195023273910725e-07 0.00246581343083509" pbc="T T F"
C        0.00007606       0.00004658      10.00611748        2       0.00005941       0.00026822      -0.00405534
Ti       0.00012923       1.74952571      11.30149896        0      -0.00032852      -0.00123946       0.00486852
Ti       1.51503164       0.87470450       8.71706760        0      -0.00010681      -0.00016718      -0.00129435
O        0.00005160       1.74931900       7.77870955        1      -0.00002000       0.00004623       0.00105633
O        1.51545375       0.87487882      12.23008024        3       0.00063132       0.00067746       0.06797311
C       -1.51498348       2.62415300      10.00578099        2       0.00009088       0.00052622      -0.00338530
Ti      -1.51551469       4.37333674      11.30134231        0      -0.00035866      -0.00023149       0.00395828
Ti       0.00001847       3.49884196       8.71698356        0      -0.00017327      -0.00025128      -0.00114712
O       -1.51474275       4.37340872       7.77823598        1      -0.00005105       0.00001505       0.00089235
O        0.00021911       3.49937661      12.23008024        3       0.00065792       0.00090947       0.06669241
C       -3.02995495       5.24819359      10.00515587        2       0.00020929       0.00007464      -0.00294393
Ti      -3.03046728       6.99712247      11.30120952        0      -0.00053328       0.00090956       0.00442238
Ti      -1.51505509       6.12277971       8.71649919        0      -0.00025217       0.00008767      -0.00070437
O       -3.02987866       6.99770954       7.77815886        1      -0.00004531      -0.00000168       0.00102943
O       -1.51517590       6.12287600      12.23008024        3       0.00077698       0.00006362       0.07088781
C       -4.54491902       7.87215673      10.00566771        2       0.00019754      -0.00033049      -0.00358776
Ti      -4.54490451       9.62162352      11.30132302        0      -0.00039351      -0.00014563       0.00532489
Ti      -3.02991683       8.74683165       8.71688684        0      -0.00026243       0.00014845      -0.00136274
O       -4.54505794       9.62166727       7.77862553        1       0.00000063       0.00006264       0.00121252
O       -3.02940614       8.74700802      12.23008024        3       0.00076424       0.00009119       0.06527190
C        3.03009098       0.00006086      10.00568286        2       0.00047334       0.00045436      -0.00337638
Ti       3.03041626       1.74976620      11.30074165        0      -0.00090361      -0.00150032       0.00404597
Ti       4.54501417       0.87473205       8.71622006        0       0.00005704       0.00001021      -0.00096114
O        3.02970576       1.74924676       7.77822295        1       0.00019125       0.00011604       0.00096604
O        4.54555062       0.87517820      12.23008024        3       0.00018075       0.00062293       0.07317905
C        1.51507837       2.62416032      10.00575452        2       0.00045470       0.00069151      -0.00278906
Ti       1.51557685       4.37342522      11.30126160        0      -0.00083154      -0.00062564       0.00348961
Ti       3.03002097       3.49876410       8.71620586        0       0.00013883      -0.00011601      -0.00060137
O        1.51482595       4.37342286       7.77828572        1       0.00010075       0.00006803       0.00051372
O        3.03070173       3.49905279      12.23008024        3       0.00023025       0.00076280       0.07505000
C       -0.00001547       5.24819787      10.00548792        2       0.00047113       0.00014928      -0.00244320
Ti      -0.00006812       6.99749208      11.29986754        0      -0.00091741       0.00048326       0.00359472
Ti       1.51506308       6.12281021       8.71651755        0       0.00012017       0.00013529      -0.00041024
O        0.00002394       6.99751140       7.77812952        1       0.00007172       0.00010641       0.00068661
O        1.51484407       6.12303967      12.23008024        3       0.00027524      -0.00013731       0.06913935
C       -1.51499745       7.87221591      10.00545825        2       0.00044469      -0.00012805      -0.00291423
Ti      -1.51482938       9.62216780      11.30117841        0      -0.00104658      -0.00042003       0.00428818
Ti       0.00002629       8.74693404       8.71653445        0      -0.00001293       0.00034815      -0.00067755
O       -1.51508536       9.62143362       7.77821231        1       0.00008257       0.00016067       0.00094503
O       -0.00000879       8.74696067      12.23008024        3       0.00014645      -0.00024574       0.06795208
C        6.06007442       0.00004511      10.00521431        2      -0.00001902       0.00005027      -0.00294039
Ti       6.06010642       1.75007113      11.30027878        0       0.00052926      -0.00049510       0.00437405
Ti       7.57505246       0.87474655       8.71619411        0       0.00018465       0.00013470      -0.00123113
O        6.06000984       1.74911339       7.77769917        1       0.00003873       0.00018148       0.00121977
O        7.57472353       0.87523060      12.23008024        3      -0.00060371       0.00034198       0.07513800
C        4.54512464       2.62413341      10.00480680        2      -0.00012118       0.00035835      -0.00243741
Ti       4.54555733       4.37329690      11.30022902        0       0.00071101       0.00037880       0.00382129
Ti       6.06000435       3.49875398       8.71544153        0       0.00026754       0.00003668      -0.00062938
O        4.54475208       4.37354467       7.77770676        1       0.00014422       0.00002561       0.00095394
O        6.06010120       3.49883459      12.23008024        3      -0.00051689       0.00012288       0.06353987
C        3.03002287       5.24824956      10.00521950        2      -0.00014281      -0.00007130      -0.00220689
Ti       3.03043913       6.99712601      11.30117097        0       0.00075009       0.00131108       0.00372815
Ti       4.54506343       6.12281833       8.71610258        0       0.00029216       0.00025143      -0.00073445
O        3.02990500       6.99767189       7.77818149        1       0.00006906       0.00008908       0.00076285
O        4.54536571       6.12229486      12.23008024        3      -0.00045984      -0.00075734       0.07892402
C        1.51499542       7.87223474      10.00547899        2      -0.00002903      -0.00035182      -0.00259753
Ti       1.51489391       9.62215565      11.30118687        0       0.00066534       0.00034748       0.00425219
Ti       3.02997518       8.74684157       8.71686908        0       0.00030188       0.00039800      -0.00122715
O        1.51511934       9.62140524       7.77818750        1       0.00005000       0.00015303       0.00102885
O        3.02974201       8.74696127      12.23008024        3      -0.00054443      -0.00062800       0.06527054
C        9.09001643       0.00005015      10.00565457        2      -0.00038981      -0.00002958      -0.00357633
Ti       9.08985957       1.74968857      11.30067080        0       0.00082320      -0.00037071       0.00522586
Ti      10.60504514       0.87469216       8.71701870        0       0.00007375      -0.00002175      -0.00166076
O        9.09037605       1.74921337       7.77816383        1      -0.00002022       0.00012258       0.00130816
O       10.60484837       0.87482329      12.23008024        3      -0.00009107       0.00029199       0.06830167
C        7.57501262       2.62408940      10.00474277        2      -0.00031298       0.00024156      -0.00308124
Ti       7.57459616       4.37324506      11.29997086        0       0.00070340       0.00066393       0.00441174
Ti       9.09001134       3.49874895       8.71614906        0      -0.00000860      -0.00007365      -0.00118966
O        7.57526012       4.37353787       7.77765044        1      -0.00000978       0.00006113       0.00131919
O        9.08931598       3.49903842      12.23008024        3      -0.00029129       0.00046559       0.07878764
C        6.06003395       5.24809696      10.00464682        2      -0.00033593      -0.00020270      -0.00278696
Ti       6.06007795       6.99719107      11.30063837        0       0.00081115       0.00158537       0.00460820
Ti       7.57498923       6.12280170       8.71606507        0      -0.00001137       0.00020048      -0.00105389
O        6.06001717       6.99789400       7.77809954        1       0.00005592      -0.00002725       0.00119803
O        7.57477328       6.12205499      12.23008024        3      -0.00018109      -0.00052425       0.08025850
C        4.54498712       7.87217415      10.00561745        2      -0.00030653      -0.00051154      -0.00330893
Ti       4.54505882       9.62157437      11.30121952        0       0.00085029       0.00043610       0.00522310
Ti       6.06002457       8.74688658       8.71690455        0       0.00012596       0.00023999      -0.00150534
O        4.54512408       9.62164640       7.77859030        1       0.00004422       0.00012363       0.00126696
O        6.06008933       8.74644424      12.23008024        3      -0.00004776      -0.00053718       0.06916582
C        0.04497462       0.06751434      16.45113287       10      -0.00534696      -0.00373112      -0.01242626
C        1.25702954       0.76724339      16.45113287       10       0.00503964       0.00169906      -0.02899344
C       -1.16713722       2.16698968      16.45113287       10       0.00084062      -0.00767461      -0.02123363
C        0.04484752       2.86670169      16.45113287       10       0.00046120       0.00163464      -0.02120300
C       -2.37902537       4.26600334      16.45113287       10       0.00098000      -0.00411128      -0.02310521
C       -1.16690671       4.96580189      16.45113287       10       0.00084321       0.00128379      -0.01864411
C       -3.59090625       6.36526279      16.45113287       10       0.00056755      -0.00565341      -0.02325809
C       -2.37869593       7.06491586      16.45113287       10      -0.00169423       0.00406373      -0.01949355
C       -4.80288941       8.46436428      16.45113287       10      -0.00388023      -0.00295421      -0.02240632
C       -3.59095196       9.16401068      16.45113287       10       0.00539073      -0.00124392      -0.02005264
C        2.46912102       0.06725420      16.45113287       10      -0.00245617       0.00289115      -0.02232049
C        3.68107093       0.76708894      16.45113287       10      -0.00264719      -0.00393689      -0.02196773
C        1.25680960       2.16691051      16.45113287       10      -0.00066655      -0.00410916      -0.02033596
C        2.46882222       2.86650084      16.45113287       10      -0.00107855       0.00151106      -0.02301113
C        0.04498113       4.26610928      16.45113287       10      -0.00152033      -0.00186672      -0.02033423
C        1.25690842       4.96575602      16.45113287       10      -0.00018790       0.00110715      -0.01949609
C       -1.16680575       6.36518565      16.45113287       10      -0.00647351      -0.00316572      -0.02341519
C        0.04519230       7.06494493      16.45113287       10      -0.00209422       0.00091913      -0.01059121
C       -2.37893487       8.46434563      16.45113287       10      -0.00235614       0.00111212      -0.02083106
C       -1.16702256       9.16410449      16.45113287       10      -0.00021832      -0.00816844      -0.01957303
C        4.89296871       0.06728556      16.45113287       10      -0.00067576       0.00798644      -0.02039707
C        6.10493935       0.76701278      16.45113287       10      -0.00332692      -0.00429096      -0.02700102
C        3.68072040       2.16660161      16.45113287       10       0.00232578      -0.00055199      -0.02671018
C        4.89262268       2.86641290      16.45113287       10       0.00011514      -0.00193140      -0.03264679
C        2.46886732       4.26589321      16.45113287       10       0.00249867       0.00133697      -0.02213901
C        3.68072408       4.96583798      16.45113287       10      -0.00260932      -0.00150171      -0.02601839
C        1.25714766       6.36510030      16.45113287       10      -0.00039726       0.00165487      -0.02526316
C        2.46889471       7.06503069      16.45113287       10      -0.00253339       0.00032959      -0.01775144
C        0.04492103       8.46443647      16.45113287       10       0.00311360       0.00409406      -0.02658486
C        1.25688574       9.16410802      16.45113287       10       0.00063942      -0.00824064      -0.01745550
C        7.31694551       0.06730440      16.45113287       10      -0.00012763       0.00795386      -0.02032255
C        8.52877932       0.76712287      16.45113287       10       0.00216116      -0.00139970      -0.02328948
C        6.10469059       2.16665841      16.45113287       10       0.00199539      -0.00120779      -0.03124669
C        7.31672709       2.86634777      16.45113287       10       0.00639863       0.00278339      -0.03086899
C        4.89282284       4.26600050      16.45113287       10       0.00011067      -0.00143260      -0.03125506
C        6.10485971       4.96577845      16.45113287       10       0.00128905       0.00162698      -0.03121149
C        3.68092909       6.36528949      16.45113287       10       0.00081039      -0.00169536      -0.02134238
C        4.89284522       7.06489929      16.45113287       10       0.00044803       0.00394796      -0.02427411
C        2.46888554       8.46442402      16.45113287       10       0.00253396       0.00379976      -0.02133012
C        3.68077118       9.16416512      16.45113287       10       0.00255726      -0.00310840      -0.01843987
C        9.74085570       0.06738842      16.45113287       10      -0.00570268       0.00108160      -0.02192259
C       10.95276142       0.76729776      16.45113287       10       0.00378725       0.00260814      -0.02704005
C        8.52879671       2.16670791      16.45113287       10       0.00160425      -0.00438702      -0.02406529
C        9.74083502       2.86652021      16.45113287       10      -0.00056740       0.00532674      -0.02490838
C        7.31690099       4.26597255      16.45113287       10      -0.00099945      -0.00170312      -0.03267462
C        8.52913745       4.96575519      16.45113287       10      -0.00124787       0.00382964      -0.02406435
C        6.10497460       6.36528539      16.45113287       10      -0.00061034      -0.00194497      -0.02171181
C        7.31713944       7.06480379      16.45113287       10      -0.00098050       0.00745354      -0.02582777
C        4.89281696       8.46441515      16.45113287       10      -0.00509599      -0.00192733      -0.02071417
C        6.10487008       9.16401150      16.45113287       10       0.00534473       0.00344300      -0.02553764
