130
Lattice="12.12 0.0 0.0 -6.06 10.496227893867395 0.0 0.0 0.0 40.0" Properties=species:S:1:pos:R:3:tags:I:1:forces:R:3 energy=-1201.0061587749105 stress="0.002866060790365616 3.578836568216202e-08 6.465436372755555e-07 3.578836568216202e-08 0.0028660965605073413 9.862914012269104e-07 6.465436372755555e-07 9.862914012269104e-07 0.0021451860936818647" pbc="T T F"
C        0.00005763       0.00009144      10.00190350        2       0.00013578       0.00016707       0.00188654
Ti       0.00005358       1.74957263      11.29189323        0       0.00020297       0.00042432       0.00122617
Ti       1.51498889       0.87469971       8.71120936        0       0.00006382       0.00010632       0.00227305
O       -0.00000221       1.74940944       7.77157977        1       0.00009139       0.00013633       0.00249656
O        1.51456921       0.87468482      12.23008024        3       0.00003886       0.00015476       0.09672208
C       -1.51498711       2.62414676      10.00209090        2       0.00011664       0.00013536       0.00185524
Ti      -1.51490532       4.37364616      11.29171530        0       0.00014050       0.00029182       0.00135036
Ti       0.00000567       3.49875228       8.71118890        0       0.00004395       0.00018404       0.00219969
O       -1.51509656       4.37339229       7.77159805        1      -0.00009212       0.00005281       0.00264253
O        0.00011654       3.49900428      12.23008024        3       0.00007349       0.00021880       0.11580564
C       -3.02997732       5.24817427      10.00219718        2       0.00005187       0.00009870       0.00196681
Ti      -3.02988212       6.99759314      11.29170351        0       0.00012856       0.00007991       0.00137771
Ti      -1.51499662       6.12281524       8.71116025        0       0.00003166       0.00010798       0.00223293
O       -3.03009955       6.99744210       7.77159515        1      -0.00010875       0.00001669       0.00266692
O       -1.51460757       6.12322375      12.23008024        3       0.00012232       0.00017733       0.10067704
C       -4.54497874       7.87219252      10.00212495        2       0.00008072       0.00015936       0.00194548
Ti      -4.54494200       9.62163527      11.29186233        0       0.00023267       0.00020119       0.00127936
Ti      -3.03000713       8.74687620       8.71117396        0       0.00006293       0.00004407       0.00230423
O       -4.54499235       9.62153903       7.77157916        1       0.00006373       0.00011816       0.00253092
O       -3.03001838       8.74713557      12.23008024        3       0.00013049       0.00006960       0.11733841
C        3.03001527       0.00003379      10.00202826        2       0.00002771       0.00007856       0.00191796
Ti       3.02994889       1.74936049      11.29186186        0       0.00009867       0.00025671       0.00144396
Ti       4.54498797       0.87468525       8.71130992        0       0.00004497       0.00009762       0.00251948
O        3.03010965       1.74945111       7.77164252        1       0.00013107       0.00013903       0.00276374
O        4.54461612       0.87417419      12.23008024        3      -0.00000647       0.00001882       0.10638265
C        1.51501833       2.62413901      10.00203700        2       0.00001983       0.00015245       0.00184191
Ti       1.51491983       4.37370069      11.29170432        0       0.00008103       0.00041133       0.00136527
Ti       3.02998515       3.49874551       8.71133664        0       0.00005147       0.00009921       0.00248548
O        1.51509506       4.37339942       7.77159513        1       0.00013727       0.00005376       0.00261847
O        3.02931347       3.49872041      12.23008024        3      -0.00002449       0.00021871       0.10778997
C        0.00000178       5.24815969      10.00189796        2       0.00006160       0.00021804       0.00168153
Ti       0.00004383       6.99758140      11.29159935        0       0.00016847       0.00018031       0.00124620
Ti       1.51500831       6.12282158       8.71115554        0       0.00009275       0.00011633       0.00212866
O       -0.00000238       6.99748944       7.77154873        1       0.00001948       0.00007674       0.00246634
O        1.51482895       6.12333868      12.23008024        3       0.00011709       0.00030086       0.09729889
C       -1.51503824       7.87220878      10.00189777        2       0.00009222       0.00011189       0.00173703
Ti      -1.51490245       9.62138900      11.29167633        0       0.00019910       0.00002251       0.00133698
Ti       0.00001219       8.74686602       8.71114107        0       0.00007454       0.00011145       0.00218073
O       -1.51499910       9.62164253       7.77158390        1       0.00002061       0.00016033       0.00261222
O        0.00020752       8.74657026      12.23008024        3       0.00020416       0.00017086       0.09479172
C        6.06003311       0.00000736      10.00215564        2       0.00011473       0.00002686       0.00188629
Ti       6.06002375       1.74913280      11.29185494        0       0.00006028      -0.00000716       0.00160471
Ti       7.57502335       0.87469115       8.71131200        0       0.00001905       0.00010350       0.00252246
O        6.06000724       1.74946965       7.77173523        1       0.00005701       0.00016424       0.00302132
O        7.57543035       0.87417318      12.23008024        3       0.00019719       0.00003263       0.10792570
C        4.54499923       2.62404588      10.00240584        2      -0.00001549       0.00002267       0.00205620
Ti       4.54481759       4.37354860      11.29188783        0       0.00000823       0.00013965       0.00162692
Ti       6.06000315       3.49875365       8.71153697        0      -0.00001023       0.00003304       0.00285490
O        4.54507981       4.37340124       7.77174659        1       0.00014950       0.00003378       0.00304423
O        6.06003144       3.49880610      12.23008024        3       0.00003010       0.00000275       0.09048434
C        3.03001407       5.24818298      10.00218400        2       0.00003980       0.00020184       0.00182023
Ti       3.02992640       6.99768531      11.29167820        0       0.00010069       0.00022380       0.00134921
Ti       4.54501315       6.12281727       8.71134233        0       0.00005728       0.00000031       0.00253442
O        3.03010387       6.99745335       7.77159143        1       0.00020020       0.00005475       0.00261871
O        4.54486014       6.12322144      12.23008024        3       0.00007660       0.00021646       0.10702134
C        1.51509426       7.87223875      10.00186437        2       0.00014764       0.00017753       0.00169469
Ti       1.51507518       9.62139197      11.29166241        0       0.00020420       0.00003524       0.00129619
Ti       3.03003294       8.74688369       8.71116964        0       0.00009105       0.00007385       0.00221129
O        1.51501734       9.62164650       7.77158241        1       0.00009137       0.00018307       0.00259660
O        3.03049381       8.74725571      12.23008024        3       0.00027880       0.00025756       0.11533729
C        9.09008236       0.00005415      10.00204802        2       0.00019622       0.00013413       0.00186869
Ti       9.09009627       1.74934125      11.29185396        0       0.00010090       0.00018226       0.00137654
Ti      10.60502852       0.87470217       8.71122428        0       0.00004801       0.00013470       0.00227148
O        9.08992806       1.74944860       7.77164811        1      -0.00002518       0.00014741       0.00276658
O       10.60570236       0.87481083      12.23008024        3       0.00014427       0.00020430       0.09983462
C        7.57500724       2.62400127      10.00236094        2       0.00010229       0.00004094       0.00215162
Ti       7.57513557       4.37349949      11.29191183        0      -0.00000123       0.00003402       0.00161955
Ti       9.09001320       3.49874384       8.71135884        0      -0.00001378       0.00010245       0.00257273
O        7.57493541       4.37340279       7.77175830        1      -0.00008929       0.00000250       0.00307404
O        9.09037826       3.49876159      12.23008024        3       0.00022324       0.00011744       0.10641509
C        6.05996010       5.24815040      10.00233589        2       0.00007564       0.00009922       0.00212646
Ti       6.05999769       6.99760414      11.29184804        0       0.00006709       0.00010397       0.00145653
Ti       7.57499446       6.12281056       8.71136280        0       0.00000129      -0.00001513       0.00262729
O        6.06001524       6.99741448       7.77165426        1       0.00006096       0.00000245       0.00281721
O        7.57502911       6.12291170      12.23008024        3       0.00011207       0.00017135       0.10383109
C        4.54506652       7.87224051      10.00208901        2       0.00013817       0.00021066       0.00187355
Ti       4.54513276       9.62168197      11.29184024        0       0.00020969       0.00025730       0.00120636
Ti       6.06001171       8.74688777       8.71122796        0       0.00007456       0.00001474       0.00234678
O        4.54502010       9.62155741       7.77157989        1       0.00013570       0.00013135       0.00250978
O        6.06023437       8.74753156      12.23008024        3       0.00014766       0.00019683       0.10238149
C        0.04505648       0.06747664      17.16165919       10      -0.00051804      -0.00003081      -0.03676293
C        1.25709833       0.76721760      17.16165919       10      -0.00456181      -0.00179999      -0.04508199
C       -1.16705236       2.16661591      17.16165919       10       0.00066883       0.00189412      -0.03738638
C        0.04487195       2.86642745      17.16165919       10       0.00045619      -0.00161058      -0.04099599
C       -2.37898397       4.26596071      17.16165919       10      -0.00128644       0.00044081      -0.03204885
C       -1.16698416       4.96568254      17.16165919       10       0.00050346      -0.00071441      -0.03424816
C       -3.59092066       6.36520197      17.16165919       10      -0.00221453       0.00179181      -0.03226031
C       -2.37895693       7.06496933      17.16165919       10      -0.00007610      -0.00219339      -0.03417516
C       -4.80314389       8.46451410      17.16165919       10       0.00177647       0.00069693      -0.03512404
C       -3.59110785       9.16418222      17.16165919       10      -0.00047919      -0.00056444      -0.03904338
C        2.46898730       0.06740368      17.16165919       10       0.00061011      -0.00039505      -0.04045846
C        3.68103234       0.76719482      17.16165919       10      -0.00354353      -0.00053082      -0.03077286
C        1.25681307       2.16666011      17.16165919       10       0.00268880       0.00126577      -0.04066387
C        2.46888551       2.86642360      17.16165919       10      -0.00197137      -0.00000561      -0.03051191
C        0.04497473       4.26589131      17.16165919       10      -0.00117243      -0.00015283      -0.04082191
C        1.25692906       4.96565020      17.16165919       10      -0.00169249       0.00173697      -0.03685280
C       -1.16691434       6.36517964      17.16165919       10      -0.00157231       0.00110194      -0.04070601
C        0.04501697       7.06492118      17.16165919       10       0.00009757       0.00018383      -0.03538407
C       -2.37913680       8.46441749      17.16165919       10       0.00126779       0.00073576      -0.03947263
C       -1.16713712       9.16409041      17.16165919       10       0.00076040       0.00184652      -0.03920655
C        4.89302576       0.06741554      17.16165919       10      -0.00106099      -0.00140524      -0.03091719
C        6.10499421       0.76727426      17.16165919       10       0.00033877      -0.00079512      -0.03286558
C        3.68086764       2.16669787      17.16165919       10       0.00201417      -0.00013392      -0.03226996
C        4.89284917       2.86652098      17.16165919       10       0.00163374       0.00036122      -0.03706506
C        2.46890767       4.26598185      17.16165919       10       0.00082133      -0.00268516      -0.03196876
C        3.68094035       4.96570837      17.16165919       10      -0.00110140       0.00227715      -0.03250445
C        1.25698754       6.36516908      17.16165919       10      -0.00189802      -0.00078208      -0.04100365
C        2.46895585       7.06497993      17.16165919       10      -0.00230804      -0.00027631      -0.03679364
C        0.04489147       8.46441170      17.16165919       10      -0.00062136       0.00037820      -0.04488001
C        1.25688067       9.16415447      17.16165919       10       0.00076030       0.00099343      -0.03933529
C        7.31700023       0.06747857      17.16165919       10      -0.00101715      -0.00225731      -0.03063218
C        8.52906190       0.76722408      17.16165919       10      -0.00155507      -0.00113758      -0.03220540
C        6.10493171       2.16676049      17.16165919       10      -0.00036739      -0.00061535      -0.03578879
C        7.31695733       2.86653770      17.16165919       10       0.00129177      -0.00149962      -0.03710021
C        4.89290395       4.26607725      17.16165919       10       0.00142148      -0.00214223      -0.03573349
C        6.10496732       4.96579078      17.16165919       10       0.00089033      -0.00026862      -0.03569941
C        3.68092833       6.36523151      17.16165919       10       0.00169892      -0.00037813      -0.03203847
C        4.89302455       7.06500469      17.16165919       10      -0.00298176      -0.00169260      -0.03239962
C        2.46882561       8.46444131      17.16165919       10       0.00328464       0.00014235      -0.04177595
C        3.68084448       9.16417363      17.16165919       10      -0.00090453      -0.00004400      -0.04052045
C        9.74104440       0.06739410      17.16165919       10       0.00023856       0.00012672      -0.03728439
C       10.95305555       0.76715172      17.16165919       10      -0.00205896      -0.00109213      -0.04042158
C        8.52894334       2.16668760      17.16165919       10      -0.00017243       0.00177366      -0.03154516
C        9.74090928       2.86642835      17.16165919       10       0.00192947      -0.00215869      -0.03240322
C        7.31701023       4.26603671      17.16165919       10      -0.00077672       0.00033561      -0.03399949
C        8.52898571       4.96572454      17.16165919       10       0.00103263      -0.00084565      -0.03299604
C        6.10501432       6.36525997      17.16165919       10      -0.00074092       0.00124904      -0.03173706
C        7.31699313       7.06501923      17.16165919       10      -0.00093464      -0.00233327      -0.03267299
C        4.89280559       8.46449048      17.16165919       10       0.00432310       0.00140506      -0.03512915
C        6.10484690       9.16425515      17.16165919       10       0.00024996      -0.00038537      -0.04035643
