132
Lattice="12.12 0.0 0.0 -6.06 10.496227893867395 0.0 0.0 0.0 40.0" Properties=species:S:1:pos:R:3:tags:I:1:forces:R:3 energy=-1209.9700157302725 stress="0.0028158409077810105 1.2397608089982386e-06 -2.422466529264316e-06 1.2397608089982386e-06 0.0028161578799014127 1.2696768637571432e-06 -2.422466529264316e-06 1.2696768637571432e-06 0.0021827789914858225" pbc="T T F"
C        0.00117524      -0.00176509      10.00290416        2       0.00078009       0.00071344       0.00214240
Ti      -0.00441831       1.75174008      11.31917256        0       0.00183627      -0.00047074      -0.00125088
Ti       1.51487527       0.87383807       8.69539076        0      -0.00049352       0.00001673      -0.00130568
O       -0.00191789       1.74964948       7.77583443        1       0.00029201      -0.00013512       0.00071110
O        1.51222969       0.87483207      12.23159545        3      -0.00042091       0.00004574       0.01867355
C       -1.51489480       2.62333349      10.01539477        2      -0.00088983       0.00011218       0.00231431
Ti      -1.51600453       4.36974958      11.30064059        0       0.00032786       0.00011418       0.00114925
Ti       0.00294663       3.49999095       8.69279220        0       0.00056621      -0.00078214      -0.00117649
O       -1.51534534       4.36991707       7.77288800        1       0.00004446      -0.00059869       0.00164993
O        0.00492004       3.50215808      12.23159545        3      -0.00090864       0.00034865      -0.01798490
C       -3.02994431       5.24742779      10.00452523        2       0.00074929      -0.00055868       0.00184999
Ti      -3.02958083       6.99568668      11.30290048        0      -0.00014912      -0.00133154      -0.00029419
Ti      -1.51282492       6.12175291       8.69122379        0      -0.00040217       0.00030186      -0.00190340
O       -3.02911957       6.99505170       7.76978127        1      -0.00064791       0.00005910       0.00179106
O       -1.51307767       6.12034389      12.23159545        3      -0.00090129      -0.00055767       0.01550172
C       -4.54385879       7.87115772      10.00119626        2      -0.00018570      -0.00112936       0.00154402
Ti      -4.54454975       9.62167393      11.30440066        0       0.00052996      -0.00064280      -0.00086551
Ti      -3.02935233       8.74547895       8.69014696        0      -0.00105244       0.00006308      -0.00079139
O       -4.54417891       9.62177685       7.77008772        1      -0.00046134      -0.00048969       0.00203852
O       -3.02940316       8.74541531      12.23159545        3       0.00061928      -0.00075627       0.03135504
C        3.03112162      -0.00125954      10.00308030        2      -0.00003163      -0.00026161       0.00189175
Ti       3.03012782       1.74828327      11.30459800        0       0.00024901      -0.00002557      -0.00054308
Ti       4.54562317       0.87335167       8.69047320        0      -0.00075230       0.00066767      -0.00123060
O        3.02986457       1.74721161       7.77013650        1       0.00001698       0.00111103       0.00160429
O        4.54584747       0.87300420      12.23159545        3       0.00096448      -0.00019200       0.05484219
C        1.51657387       2.62322994      10.00257208        2      -0.00055544      -0.00049414       0.00201511
Ti       1.51738242       4.37376765      11.30609958        0       0.00051749       0.00076821       0.00023728
Ti       3.02989842       3.49591730       8.69322509        0       0.00075439       0.00087118      -0.00098877
O        1.51457603       4.37121707       7.76949905        1       0.00021271       0.00046435       0.00149838
O        3.03087923       3.49772549      12.23159545        3      -0.00019580       0.00015056       0.05374136
C        0.00331796       5.24928167       9.99937122        2      -0.00110639      -0.00018820       0.00260764
Ti      -0.00198567       6.99458883      11.30707262        0      -0.00014958      -0.00042969      -0.00099595
Ti       1.51579994       6.12235839       8.69134847        0       0.00021995       0.00112228      -0.00101367
O        0.00013122       6.99622131       7.76890743        1      -0.00075120      -0.00043804       0.00016432
O        1.51478271       6.12390067      12.23159545        3      -0.00014110      -0.00047523       0.00269259
C       -1.51485260       7.87128201      10.00091957        2       0.00002796      -0.00030552       0.00092274
Ti      -1.51512790       9.62093300      11.30489429        0       0.00063142      -0.00039262       0.00003111
Ti       0.00055250       8.74581617       8.69225339        0      -0.00104029       0.00057743      -0.00329604
O       -1.51458601       9.62069968       7.76897332        1      -0.00145685       0.00071872       0.00039828
O        0.00039175       8.74413608      12.23159545        3      -0.00081269       0.00083011       0.00693146
C        6.06004232      -0.00196307      10.00147288        2      -0.00032773       0.00003963       0.00038707
Ti       6.06289153       1.74928076      11.30487269        0      -0.00025571       0.00063753      -0.00045445
Ti       7.57638394       0.87196597       8.69205215        0      -0.00061200       0.00025952      -0.00208767
O        6.06208365       1.74832596       7.77102107        1      -0.00046346       0.00061729       0.00128364
O        7.57679517       0.87127491      12.23159545        3      -0.00039101       0.00101549       0.03987951
C        4.54572197       2.62248525      10.00201908        2       0.00069342       0.00080237       0.00105810
Ti       4.54726541       4.37183874      11.30538644        0       0.00033863      -0.00007431       0.00002404
Ti       6.05866366       3.49849110       8.69114172        0      -0.00045668      -0.00004747      -0.00308255
O        4.54487573       4.37128910       7.76844588        1       0.00046116       0.00055039       0.00089386
O        6.06167729       3.49913927      12.23159545        3       0.00067926       0.00048573       0.04950784
C        3.03055189       5.24720887      10.00187998        2       0.00048310       0.00033949       0.00140312
Ti       3.03051974       6.99635747      11.30461812        0      -0.00001355       0.00019177      -0.00151604
Ti       4.54487479       6.12206899       8.68852297        0      -0.00079300       0.00067804      -0.00005278
O        3.03015237       6.99677152       7.76707303        1      -0.00056929       0.00083652       0.00074620
O        4.54510735       6.12228316      12.23159545        3      -0.00016419      -0.00005003       0.05569020
C        1.51536290       7.87109847      10.00073537        2      -0.00076025       0.00066222       0.00093182
Ti       1.51442746       9.62167388      11.30651892        0       0.00014947       0.00025868      -0.00069947
Ti       3.03024772       8.74485498       8.69154311        0      -0.00082062      -0.00022957      -0.00082411
O        1.51576061       9.62115870       7.76936573        1       0.00001186       0.00106314       0.00081786
O        3.02923788       8.74411580      12.23159545        3       0.00022018       0.00035932       0.02075611
C        9.09043822      -0.00437268      10.00099603        2      -0.00063924       0.00150278       0.00338769
Ti       9.09285924       1.74784568      11.29972392        0      -0.00056772      -0.00040685       0.00237678
Ti      10.60495033       0.87089497       8.69318331        0       0.00112387       0.00009648      -0.00075995
O        9.09183977       1.74990118       7.77347181        1       0.00017773       0.00008614       0.00125196
O       10.60646556       0.86747151      12.23159545        3      -0.00110774      -0.00013307      -0.04953786
C        7.57456888       2.62290750      10.00593900        2       0.00052138      -0.00043551       0.00184611
Ti       7.57592278       4.37324449      11.29422055        0      -0.00209698       0.00077232      -0.00121777
Ti       9.08925070       3.49848407       8.69487138        0       0.00136392      -0.00093629      -0.00311853
O        7.57664000       4.37121120       7.77097218        1       0.00064661      -0.00070780       0.00093914
O        9.08370564       3.50068154      12.23159545        3      -0.00217947       0.00150253       0.05123085
C        6.05629541       5.24961346       9.99811422        2       0.00095711      -0.00055401       0.00132852
Ti       6.06176841       6.99522407      11.30522286        0       0.00020383      -0.00051989      -0.00048414
Ti       7.57383750       6.12263736       8.69010915        0       0.00001672       0.00037038      -0.00241878
O        6.06071142       6.99754857       7.76832029        1       0.00038101      -0.00059435       0.00076861
O        7.57504484       6.12215245      12.23159545        3       0.00015189      -0.00154535       0.08045207
C        4.54532792       7.87115812      10.00198077        2       0.00048135       0.00018990       0.00168470
Ti       4.54541471       9.61874996      11.30868001        0      -0.00021205      -0.00099330      -0.00022584
Ti       6.06164835       8.74703450       8.69352086        0       0.00003647      -0.00068857      -0.00095345
O        4.54569313       9.62195740       7.77047081        1       0.00001665       0.00048660       0.00212221
O        6.06170044       8.74565979      12.23159545        3      -0.00031134      -0.00025941       0.02593003
C        0.06868590       0.05464246      16.99513794       10       0.00141667       0.00259054      -0.01079202
C        1.27576458       0.75812939      17.00352617       10      -0.00140256      -0.00029205      -0.03819602
C       -1.12007490       2.14098336      16.97076727       10      -0.00058589       0.00194567       0.58511373
C        0.06612042       2.85580785      16.97840601       10      -0.00049829       0.00069689      -0.00855803
C       -2.36406132       4.29417949      16.97076172       10      -0.00049399       0.00244250       0.39512296
C       -1.15277807       4.96506418      16.97840345       10      -0.00029758       0.00124633       0.03107896
C       -3.57702696       6.37067883      16.99513739       10       0.00147918       0.00080330      -0.00152489
C       -2.36397340       7.06264035      17.00352597       10       0.00020481       0.00189215       0.00865933
C       -4.78759008       8.45852829      16.99324500       10       0.00150616      -0.00033877      -0.00129078
C       -3.57572186       9.15769762      17.00453466       10      -0.00304807      -0.00175874      -0.02363848
C        2.48664288       0.05871563      17.00555968       10      -0.00057433       0.00025695       0.00064309
C        3.69572837       0.75972987      17.00453457       10       0.00032195       0.00094135      -0.00420431
C        1.28110697       2.15507624      16.99513815       10       0.00054086       0.00044897      -0.00892200
C        2.48597680       2.85956239      16.98607802       10       0.00166765      -0.00060350      -0.00224695
C        0.06350644       4.26103592      16.95227813       10       0.00036081      -0.00011644      -0.00344761
C        1.27033619       4.95856251      16.96394808       10       0.00144179      -0.00259642      -0.01463487
C       -1.15235134       6.36877509      16.99513739       10      -0.00014317       0.00165231      -0.01201251
C        0.06054433       7.06052096      16.98607812       10      -0.00054150       0.00084884      -0.00636600
C       -2.36412041       8.46109421      17.00555989       10      -0.00067958       0.00226966      -0.00427310
C       -1.15299213       9.15773001      17.00453466       10      -0.00054813       0.00202262      -0.01209855
C        4.90470436       0.05892361      17.00555968       10      -0.00023344       0.00124364       0.01307757
C        6.11594810       0.75849891      17.00352617       10       0.00125849      -0.00352111       0.01506891
C        3.69529157       2.15893260      16.99324487       10       0.00203347       0.00098837       0.00161057
C        4.90479196       2.86008064      16.98607802       10       0.00189334       0.00073118       0.01723747
C        2.48368654       4.25814589      16.97219452       10       0.00220579      -0.00141710       0.00703060
C        3.69555172       4.95925033      16.96940666       10       0.00055361       0.00043200       0.00449610
C        1.27058618       6.35945477      16.97219442       10      -0.00142441      -0.00247103      -0.02569000
C        2.48359532       7.05848391      16.96940655       10      -0.00118791      -0.00177405      -0.00804039
C        0.05853016       8.45870117      16.99324500       10      -0.00046689       0.00133118      -0.02579975
C        1.27008524       9.15618494      16.98607787       10       0.00192415      -0.00284830      -0.00213433
C        7.32269873       0.05636237      16.99513794       10       0.00105947      -0.00329288       0.00873252
C        8.53821023       0.75849412      16.97840582       10       0.00012607      -0.00196427       0.03589011
C        6.10894140       2.15502903      16.99513815       10      -0.00004017      -0.00305096      -0.00526371
C        7.32529924       2.85527299      16.97840601       10      -0.00165250      -0.00163771       0.03624356
C        4.90713405       4.25776715      16.97219452       10       0.00056584       0.00117203       0.00427048
C        6.11987727       4.95877631      16.96394808       10       0.00023918       0.00013019      -0.00553802
C        3.69571080       6.35859016      16.96632866       10      -0.00040184      -0.00004811      -0.00835737
C        4.90732193       7.05824404      16.96940655       10       0.00122688      -0.00109085       0.00247285
C        2.48194340       8.45848768      16.97219425       10       0.00239813      -0.00138811      -0.01258696
C        3.69518843       9.15879394      16.96394767       10       0.00351793      -0.00053755      -0.01981861
C        9.75563722       0.05645347      16.95227808       10       0.00265524       0.00192120      -0.00484752
C       10.97389142       0.75642233      16.97840582       10      -0.00250498       0.00185162      -0.02824268
C        8.51425069       2.14307527      16.97076727       10      -0.00184575      -0.00102425       0.37035671
C        9.75548255       2.86064675      16.72640801       10      -0.00327675       0.00248710      -1.69867878
C        7.32713449       4.26183138      16.95227813       10      -0.00048982      -0.00038355      -0.04392333
C        8.54461437       4.96716703      16.97840345       10      -0.00195848       0.00168729       0.04823567
C        6.12052507       6.35978044      16.97219442       10       0.00188419      -0.00062470       0.01265355
C        7.33001085       7.06068470      16.98607812       10       0.00052890       0.00035323       0.01707986
C        4.90835749       8.45836991      16.97219425       10       0.00400631       0.00023079       0.00015177
C        6.12098644       9.15537596      16.98607787       10      -0.00098150       0.00020147      -0.03174018
O        9.83676851       2.81701555      15.18547116       11      -0.00153867      -0.00624013       0.00605888
H        9.07880095       3.28450370      14.78382968       12      -0.00240792       0.00017150      -0.00434092
