130
Lattice="12.12 0.0 0.0 -6.06 10.496227893867395 0.0 0.0 0.0 40.0" Properties=species:S:1:pos:R:3:tags:I:1:forces:R:3 energy=-1199.2512228005187 stress="0.002777750494076134 -2.2640590091087004e-07 -1.5557436389386977e-07 -2.2640590091087004e-07 0.002778529057380356 -9.662709655539947e-07 -1.5557436389386977e-07 -9.662709655539947e-07 0.003057944308797237" pbc="T T F"
C        0.00002312       0.00006619       9.96874649        2       0.00032095      -0.00051505      -0.00164225
Ti       0.00023381       1.74636561      11.29006374        0       0.00014307       0.00050550      -0.00096371
Ti       1.51542504       0.87474240       8.69414951        0      -0.00011111       0.00000692       0.00433244
O       -0.00002763       1.74910746       7.77251027        1       0.00003767      -0.00032069      -0.00218173
O        1.51163660       0.87325317      12.23159545        3      -0.00072740      -0.00074612      -0.13989722
C       -1.51587418       2.62457731       9.96784316        2       0.00006069      -0.00074109      -0.00242273
Ti      -1.51647804       4.37041891      11.28869180        0       0.00052552      -0.00019317      -0.00174594
Ti       0.00015768       3.49874222       8.69507100        0       0.00014225      -0.00051128       0.00497346
O       -1.51558287       4.37349955       7.77174072        1       0.00020032      -0.00011558      -0.00209073
O        0.00063727       3.49499824      12.23159545        3      -0.00016127      -0.00064547      -0.17470464
C       -3.03112403       5.24734160       9.96851386        2      -0.00024382       0.00011425      -0.00276344
Ti      -3.03252546       6.99677007      11.28930588        0       0.00046618      -0.00033175      -0.00182220
Ti      -1.51449238       6.12309751       8.69735294        0      -0.00012100      -0.00048873       0.00441772
O       -3.03014935       6.99697625       7.77195553        1       0.00009335       0.00026345      -0.00186971
O       -1.51388027       6.12280769      12.23159545        3       0.00026353       0.00001105      -0.18490193
C       -4.54519363       7.87100156       9.96777950        2      -0.00003526       0.00046607      -0.00181639
Ti      -4.54821969       9.62380696      11.29091092        0       0.00019765       0.00023021      -0.00130032
Ti      -3.02997950       8.74714682       8.69605387        0      -0.00046722       0.00003205       0.00407445
O       -4.54528912       9.62152725       7.77256389        1       0.00006967      -0.00013701      -0.00202987
O       -3.03271848       8.74951068      12.23159545        3      -0.00007470      -0.00022168      -0.17856520
C        3.03083084       0.00024784       9.96712216        2      -0.00054323      -0.00071260      -0.00196812
Ti       3.02898793       1.74910331      11.28624366        0       0.00025548       0.00049789      -0.00042884
Ti       4.54476391       0.87347910       8.69598661        0      -0.00023793       0.00029028       0.00568128
O        3.03119284       1.75004900       7.77167761        1      -0.00056552      -0.00063351      -0.00227678
O        4.54161573       0.87261014      12.23159545        3      -0.00055438      -0.00054031      -0.19898221
C        1.51574367       2.62467662       9.96755892        2      -0.00067226      -0.00086356      -0.00261996
Ti       1.51596608       4.37022929      11.28844292        0       0.00027236      -0.00003924      -0.00084490
Ti       3.02917978       3.49893810       8.69555398        0       0.00002340      -0.00014525       0.00598668
O        1.51563982       4.37356671       7.77185316        1      -0.00047355      -0.00019345      -0.00224568
O        3.02662314       3.49655880      12.23159545        3      -0.00035796      -0.00055505      -0.20042465
C       -0.00027960       5.24730354       9.96751840        2      -0.00051907      -0.00025086      -0.00264968
Ti      -0.00099861       6.99574306      11.28997584        0       0.00021975      -0.00005175      -0.00161221
Ti       1.51462427       6.12296648       8.69765263        0       0.00015040      -0.00058798       0.00470295
O        0.00010989       6.99754546       7.77320861        1      -0.00030650      -0.00005103      -0.00228197
O        1.51301341       6.12270144      12.23159545        3      -0.00026205       0.00031417      -0.18410638
C       -1.51581926       7.87187471       9.96782616        2      -0.00054633      -0.00007667      -0.00189098
Ti      -1.51635329       9.62307433      11.28928266        0       0.00011510       0.00011713      -0.00177073
Ti      -0.00003305       8.74651270       8.69803890        0      -0.00010519      -0.00015124       0.00432740
O       -1.51452351       9.62173451       7.77214913        1      -0.00022448      -0.00054778      -0.00189420
O       -0.00049696       8.74428911      12.23159545        3       0.00020611      -0.00028933      -0.18182056
C        6.06004384       0.00107107       9.96842885        2      -0.00002567      -0.00019034      -0.00276835
Ti       6.06055473       1.75130391      11.28683455        0       0.00010271      -0.00000912      -0.00101070
Ti       7.57546080       0.87314217       8.69574234        0      -0.00013816       0.00015604       0.00568402
O        6.06017511       1.75031915       7.77287876        1       0.00003935      -0.00058253      -0.00296762
O        7.57793268       0.87238089      12.23159545        3      -0.00000258       0.00001672      -0.20487758
C        4.54556187       2.62450717       9.97160205        2      -0.00030643      -0.00056781      -0.00390826
Ti       4.54644806       4.37329732      11.28571582        0       0.00023518      -0.00062175      -0.00036584
Ti       6.05982386       3.49834797       8.69613932        0      -0.00024054      -0.00003628       0.00660707
O        4.54611076       4.37313229       7.77265727        1      -0.00029834       0.00001040      -0.00290794
O        6.06045050       3.49901088      12.23159545        3       0.00009275      -0.00005230      -0.22577774
C        3.03112899       5.24741883       9.96846630        2       0.00006623       0.00010772      -0.00364610
Ti       3.03135990       6.99635616      11.28994702        0      -0.00032350      -0.00043043      -0.00151495
Ti       4.54398045       6.12395306       8.69532679        0       0.00004250      -0.00042320       0.00610025
O        3.02994762       6.99702232       7.77229131        1      -0.00015143       0.00034294      -0.00207168
O        4.54448877       6.12572060      12.23159545        3       0.00050959       0.00000289      -0.21148421
C        1.51553243       7.87203682       9.96832014        2       0.00008051       0.00028516      -0.00256943
Ti       1.51501253       9.62272304      11.29005164        0      -0.00012227      -0.00046672      -0.00193142
Ti       3.03025538       8.74711369       8.69686081        0       0.00031378      -0.00017515       0.00470998
O        1.51455076       9.62152342       7.77238576        1       0.00011869      -0.00037869      -0.00205818
O        3.03278990       8.74887866      12.23159545        3       0.00016289      -0.00025461      -0.18336035
C        9.08933711       0.00043244       9.96681359        2       0.00056624      -0.00006493      -0.00192230
Ti       9.09068693       1.74965889      11.28416822        0      -0.00040721       0.00016907      -0.00041032
Ti      10.60459501       0.87459689       8.69450994        0       0.00059260       0.00001102       0.00442010
O        9.08887014       1.75009650       7.77119100        1       0.00057209      -0.00067593      -0.00234705
O       10.60897681       0.87325812      12.23159545        3       0.00068757      -0.00075531      -0.14986837
C        7.57481201       2.62456908       9.97166692        2       0.00069702      -0.00034722      -0.00339384
Ti       7.57513461       4.37346222      11.28463009        0      -0.00056866      -0.00069180      -0.00074701
Ti       9.09098565       3.49882584       8.69504831        0      -0.00012691      -0.00016059       0.00569067
O        7.57400256       4.37300126       7.77248615        1       0.00034089      -0.00003703      -0.00313031
O        9.09328906       3.49670864      12.23159545        3      -0.00013551       0.00011264      -0.20853043
C        6.06025377       5.24761414       9.97193091        2       0.00037809       0.00062771      -0.00369741
Ti       6.06042107       6.99681780      11.28327789        0      -0.00053463      -0.00020618      -0.00041494
Ti       7.57579402       6.12379498       8.69509629        0      -0.00031446      -0.00035912       0.00550103
O        6.06006222       6.99607056       7.77107405        1       0.00006433       0.00074050      -0.00212078
O        7.57525398       6.12575310      12.23159545        3      -0.00018999      -0.00000415      -0.21353591
C        4.54526215       7.87112769       9.96719149        2       0.00059031       0.00064863      -0.00213340
Ti       4.54929758       9.62406415      11.29192210        0      -0.00083056      -0.00020374      -0.00173574
Ti       6.05987830       8.74654352       8.69498413        0       0.00021087       0.00024327       0.00409204
O        4.54530730       9.62156928       7.77253578        1      -0.00001012      -0.00007228      -0.00209656
O        6.06037726       8.75117620      12.23159545        3      -0.00002245       0.00056422      -0.15648082
C        0.04504279       0.06800587      15.31580598       10       0.00642821       0.00303304       0.11434585
C        1.25550583       0.76674947      15.31580598       10       0.00015630      -0.00012675       0.03182081
C       -1.16582432       2.16558114      15.31580598       10       0.00139051      -0.00180366       0.06270158
C        0.04527487       2.86501272      15.31580598       10      -0.00135350      -0.00001524       0.03691422
C       -2.37749173       4.26582888      15.31580598       10       0.00205779      -0.00214762       0.05328908
C       -1.16583910       4.96562619      15.31580598       10      -0.00022845      -0.00000888       0.09517784
C       -3.59058424       6.36679650      15.31580598       10       0.00178583      -0.00068136       0.05076003
C       -2.37855710       7.06622524      15.31580598       10      -0.00056410      -0.00046945       0.09978684
C       -4.80365255       8.46657305      15.31580598       10       0.00397592      -0.00001823       0.05931844
C       -3.59213868       9.16569283      15.31580598       10      -0.00320713      -0.00336336       0.04389255
C        2.46702143       0.06779189      15.31580598       10       0.00163333       0.00292464       0.07138426
C        3.67842201       0.76612259      15.31580598       10       0.00172420       0.00026234       0.04183198
C        1.25604068       2.16535165      15.31580598       10      -0.00016302       0.00143860       0.07130797
C        2.46636342       2.86538052      15.31580598       10      -0.00011637      -0.00069750       0.03655893
C        0.04502528       4.26524223      15.31580598       10       0.00031878       0.00006818       0.05905680
C        1.25607544       4.96543404      15.31580598       10      -0.00005821       0.00052131       0.09693763
C       -1.16664372       6.36559886      15.31580598       10      -0.00051529       0.00163345       0.04914609
C        0.04514488       7.06536536      15.31580598       10      -0.00105983       0.00018446       0.12993100
C       -2.37958165       8.46516477      15.31580598       10      -0.00005034       0.00014049       0.05937795
C       -1.16767466       9.16415017      15.31580598       10       0.00021144      -0.00177406       0.10283344
C        4.89169840       0.06695320      15.31580598       10       0.00022286       0.00144841       0.05170602
C        6.10472866       0.76575169      15.31580598       10       0.00040112       0.00074576       0.06063960
C        3.67910039       2.16597523      15.31580598       10      -0.00060694      -0.00044990       0.06707059
C        4.89148354       2.86576334      15.31580598       10       0.00037430      -0.00074275       0.04417122
C        2.46746607       4.26554105      15.31580598       10      -0.00033498      -0.00067193       0.05392913
C        3.67929330       4.96641946      15.31580598       10       0.00000425       0.00147799       0.04956584
C        1.25682679       6.36544695      15.31580598       10      -0.00044704       0.00187108       0.05746605
C        2.46868539       7.06585887      15.31580598       10       0.00105280       0.00119249       0.10684417
C        0.04500065       8.46468583      15.31580598       10      -0.00032874      -0.00026274       0.06187163
C        1.25750724       9.16408417      15.31580598       10       0.00016714      -0.00122741       0.10823674
C        7.31792150       0.06699126      15.31580598       10      -0.00029311       0.00196015       0.04768277
C        8.53132208       0.76613878      15.31580598       10      -0.00015479       0.00010667       0.04619981
C        6.10479050       2.16587705      15.31580598       10       0.00065749       0.00044837       0.04983979
C        7.31808612       2.86584527      15.31580598       10       0.00007886      -0.00135061       0.05026544
C        4.89200990       4.26642074      15.31580598       10      -0.00010287       0.00047419       0.05049882
C        6.10483708       4.96713584      15.31580598       10      -0.00020264       0.00028865       0.05647539
C        3.68065295       6.36652003      15.31580598       10       0.00055285       0.00143807       0.04780604
C        4.89275613       7.06795200      15.31580598       10       0.00068322      -0.00074192       0.04227475
C        2.46946044       8.46496426      15.31580598       10      -0.00112786       0.00028172       0.06012775
C        3.68227422       9.16541870      15.31580598       10      -0.00119312      -0.00236087       0.05456564
C        9.74283055       0.06769022      15.31580598       10       0.00317475       0.00378302       0.06466444
C       10.95473166       0.76668675      15.31580598       10      -0.00379935       0.00017636       0.03316408
C        8.53073272       2.16607080      15.31580598       10       0.00015558       0.00070504       0.06581114
C        9.74372341       2.86557193      15.31580598       10      -0.00207097       0.00077630       0.03285035
C        7.31770512       4.26650338      15.31580598       10       0.00018951       0.00011193       0.05141581
C        8.53056305       4.96662569      15.31580598       10      -0.00215343       0.00226094       0.03819887
C        6.10495776       6.36728375      15.31580598       10       0.00153865       0.00027670       0.06413257
C        7.31735027       7.06797796      15.31580598       10      -0.00143581       0.00209701       0.03464376
C        4.89380806       8.46652720      15.31580598       10       0.00033607       0.00078272       0.06074707
C        6.10519475       9.16669223      15.31580598       10      -0.00587183      -0.00245935       0.03378133
