130
Lattice="12.12 0.0 0.0 -6.06 10.496227893867395 0.0 0.0 0.0 40.0" Properties=species:S:1:pos:R:3:tags:I:1:forces:R:3 energy=-1200.7478258865874 stress="0.0028584176919494815 4.0363479281390777e-08 -4.5067407276952403e-07 4.0363479281390777e-08 0.002858295802754298 -6.848942183369754e-07 -4.5067407276952403e-07 -6.848942183369754e-07 0.002088968946065892" pbc="T T F"
C       -0.00004319      -0.00008026      10.00136884        2      -0.00011840      -0.00010571       0.00133655
Ti      -0.00002670       1.74931397      11.29120136        0      -0.00008601      -0.00019852       0.00096904
Ti       1.51498283       0.87466298       8.71066729        0       0.00001681      -0.00004058       0.00160856
O       -0.00001089       1.74939074       7.77106202        1      -0.00005004      -0.00010372       0.00185583
O        1.51455185       0.87431670      12.23008024        3      -0.00004542      -0.00014269       0.10780619
C       -1.51501959       2.62401538      10.00161795        2      -0.00001925      -0.00015808       0.00128599
Ti      -1.51491753       4.37346421      11.29122260        0       0.00003769      -0.00008055       0.00105369
Ti      -0.00000391       3.49873196       8.71067150        0      -0.00000415      -0.00007857       0.00163559
O       -1.51502670       4.37341328       7.77108901        1      -0.00005728      -0.00011631       0.00193347
O       -0.00006981       3.49811428      12.23008024        3      -0.00008470      -0.00011363       0.09837857
C       -3.02991982       5.24811854      10.00166335        2      -0.00004703      -0.00006652       0.00130981
Ti      -3.02986376       6.99743166      11.29121085        0       0.00005311      -0.00006415       0.00105360
Ti      -1.51502053       6.12277894       8.71066486        0      -0.00002483      -0.00008004       0.00161461
O       -3.03002087       6.99745445       7.77108981        1      -0.00004845      -0.00008006       0.00191657
O       -1.51437118       6.12302294      12.23008024        3      -0.00008639      -0.00010879       0.10575983
C       -4.54499682       7.87214138      10.00163610        2      -0.00005588      -0.00002439       0.00126640
Ti      -4.54491750       9.62142522      11.29121536        0      -0.00015143      -0.00009157       0.00095730
Ti      -3.02999564       8.74684151       8.71066531        0      -0.00001142      -0.00005268       0.00166063
O       -4.54497957       9.62150120       7.77106120        1      -0.00005172      -0.00007373       0.00185234
O       -3.03014512       8.74677035      12.23008024        3      -0.00014974      -0.00000057       0.09818048
C        3.03000484      -0.00002109      10.00160442        2      -0.00008015      -0.00010774       0.00125676
Ti       3.02996996       1.74932122      11.29127287        0      -0.00009009      -0.00012115       0.00108453
Ti       4.54499511       0.87470160       8.71075226        0      -0.00000245      -0.00001823       0.00178069
O        3.03002943       1.74937911       7.77110316        1      -0.00000933      -0.00002974       0.00199634
O        4.54492803       0.87463299      12.23008024        3      -0.00005500      -0.00011939       0.10592506
C        1.51500214       2.62401965      10.00160092        2      -0.00009737      -0.00016607       0.00125612
Ti       1.51488525       4.37344617      11.29120968        0      -0.00007488      -0.00020289       0.00106064
Ti       3.03000718       3.49871775       8.71076065        0       0.00000944      -0.00004101       0.00176440
O        1.51502501       4.37341291       7.77109069        1       0.00001247      -0.00013374       0.00194374
O        3.02999695       3.49869638      12.23008024        3      -0.00008302      -0.00020067       0.10249611
C       -0.00001131       5.24799342      10.00154940        2      -0.00002979      -0.00009670       0.00119357
Ti      -0.00000755       6.99747604      11.29100797        0      -0.00002557      -0.00016585       0.00097828
Ti       1.51500911       6.12278185       8.71066121        0      -0.00003512      -0.00009812       0.00157695
O       -0.00000278       6.99747036       7.77107828        1      -0.00003800      -0.00005437       0.00183467
O        1.51438621       6.12291097      12.23008024        3       0.00002219      -0.00024993       0.10645386
C       -1.51506357       7.87217788      10.00151285        2      -0.00002438      -0.00008572       0.00125735
Ti      -1.51497020       9.62141888      11.29118198        0      -0.00009793      -0.00010409       0.00104266
Ti      -0.00000298       8.74686028       8.71064696        0      -0.00005228      -0.00006512       0.00158494
O       -1.51499479       9.62156556       7.77108473        1      -0.00003174       0.00002129       0.00191703
O       -0.00010490       8.74636079      12.23008024        3      -0.00016331      -0.00010787       0.10693170
C        6.05997031      -0.00002059      10.00165583        2      -0.00007959      -0.00005486       0.00130268
Ti       6.05999532       1.74928545      11.29128560        0      -0.00009131       0.00000594       0.00113980
Ti       7.57499691       0.87471218       8.71075253        0      -0.00005916      -0.00004178       0.00178630
O        6.05999170       1.74939451       7.77114857        1      -0.00002361       0.00004640       0.00211328
O        7.57500522       0.87472544      12.23008024        3      -0.00002961      -0.00014979       0.10186439
C        4.54496423       2.62402005      10.00167886        2      -0.00002893      -0.00005635       0.00134269
Ti       4.54490909       4.37345976      11.29127297        0      -0.00009292      -0.00006900       0.00113873
Ti       6.06000638       3.49874907       8.71090372        0      -0.00002035      -0.00001427       0.00184948
O        4.54500830       4.37340333       7.77115731        1       0.00002302      -0.00008590       0.00211957
O        6.06018686       3.49899815      12.23008024        3      -0.00009482      -0.00003354       0.13024381
C        3.02993562       5.24807911      10.00167602        2      -0.00005025      -0.00010725       0.00123295
Ti       3.02984070       6.99737576      11.29118584        0      -0.00019669      -0.00019128       0.00105088
Ti       4.54503006       6.12277968       8.71076878        0      -0.00003664      -0.00005941       0.00176256
O        3.03001676       6.99744833       7.77109024        1       0.00001372      -0.00009649       0.00193498
O        4.54513441       6.12270032      12.23008024        3      -0.00012399      -0.00001219       0.10005284
C        1.51501905       7.87216219      10.00148516        2      -0.00013587      -0.00011702       0.00121902
Ti       1.51487323       9.62143609      11.29117032        0      -0.00024254      -0.00015478       0.00102639
Ti       3.02997954       8.74683551       8.71066072        0      -0.00009460      -0.00009624       0.00164903
O        1.51498762       9.62156665       7.77108455        1      -0.00004487       0.00001995       0.00191975
O        3.02957259       8.74653528      12.23008024        3      -0.00016318      -0.00011560       0.09816861
C        9.08994749      -0.00003787      10.00163032        2      -0.00008596      -0.00012632       0.00130383
Ti       9.09004160       1.74929243      11.29126995        0      -0.00008772      -0.00010788       0.00106461
Ti      10.60501165       0.87465897       8.71067172        0      -0.00005873      -0.00007646       0.00162614
O        9.08996674       1.74937652       7.77109947        1      -0.00008963      -0.00003385       0.00199081
O       10.60549025       0.87416968      12.23008024        3      -0.00011679      -0.00016593       0.10702107
C        7.57504970       2.62399946      10.00163446        2      -0.00001561      -0.00002966       0.00144481
Ti       7.57512392       4.37348608      11.29124138        0      -0.00003700      -0.00003331       0.00110812
Ti       9.08998980       3.49871322       8.71076465        0      -0.00003090      -0.00004215       0.00177837
O        7.57499343       4.37341356       7.77115893        1      -0.00004782      -0.00007663       0.00209828
O        9.08986791       3.49872513      12.23008024        3       0.00005594      -0.00009749       0.10019822
C        6.05999143       5.24819542      10.00160402        2      -0.00000915      -0.00004392       0.00141621
Ti       6.05998427       6.99758500      11.29127382        0      -0.00008556      -0.00013960       0.00106702
Ti       7.57497089       6.12279091       8.71077215        0      -0.00002526      -0.00003143       0.00177652
O        6.05999616       6.99743858       7.77110493        1      -0.00004999      -0.00011364       0.00198703
O        7.57489835       6.12268388      12.23008024        3       0.00003494       0.00004264       0.10204541
C        4.54494768       7.87212251      10.00164612        2      -0.00009031      -0.00004619       0.00128423
Ti       4.54475952       9.62136965      11.29121603        0      -0.00021791      -0.00022379       0.00097834
Ti       6.05999333       8.74687284       8.71067988        0      -0.00004428      -0.00005963       0.00164707
O        4.54496198       9.62150361       7.77106223        1      -0.00006840      -0.00009113       0.00186153
O        6.05988149       8.74760709      12.23008024        3      -0.00011559      -0.00018115       0.10642549
C        0.04505949       0.06758991      17.30376445       10       0.00016268       0.00034939      -0.03326070
C        1.25702210       0.76735227      17.30376445       10      -0.00355550      -0.00127431      -0.04298826
C       -1.16694934       2.16683924      17.30376445       10       0.00054177       0.00215782      -0.03836787
C        0.04503780       2.86664021      17.30376445       10       0.00031637      -0.00113297      -0.03180328
C       -2.37901146       4.26610497      17.30376445       10      -0.00098063       0.00065872      -0.03552226
C       -1.16695567       4.96586380      17.30376445       10       0.00084235      -0.00042300      -0.03873956
C       -3.59094441       6.36528489      17.30376445       10      -0.00134378       0.00185163      -0.03467213
C       -2.37895307       7.06515576      17.30376445       10       0.00059166      -0.00184410      -0.03988925
C       -4.80299667       8.46463789      17.30376445       10       0.00156993       0.00093613      -0.03972154
C       -3.59097561       9.16441374      17.30376445       10      -0.00044593      -0.00024138      -0.03258374
C        2.46903631       0.06765190      17.30376445       10       0.00127941       0.00008379      -0.03308138
C        3.68110338       0.76740029      17.30376445       10      -0.00260673      -0.00024086      -0.03585638
C        1.25697886       2.16682348      17.30376445       10       0.00243675       0.00168011      -0.03421884
C        2.46908181       2.86654143      17.30376445       10      -0.00190701       0.00029243      -0.03583827
C        0.04508021       4.26613464      17.30376445       10      -0.00084407       0.00025337      -0.03103042
C        1.25707912       4.96585910      17.30376445       10      -0.00112437       0.00183720      -0.03566737
C       -1.16695807       6.36535256      17.30376445       10      -0.00079374       0.00126544      -0.03592088
C        0.04503801       7.06503861      17.30376445       10       0.00082134       0.00030252      -0.03382190
C       -2.37898644       8.46463914      17.30376445       10       0.00112910       0.00098105      -0.03225187
C       -1.16695377       9.16429130      17.30376445       10       0.00070120       0.00190603      -0.03363806
C        4.89310673       0.06762268      17.30376445       10      -0.00027485      -0.00106794      -0.03578262
C        6.10502623       0.76743851      17.30376445       10       0.00072843      -0.00019193      -0.03948964
C        3.68104346       2.16684877      17.30376445       10       0.00180171       0.00019203      -0.03943914
C        4.89300458       2.86659518      17.30376445       10       0.00119245       0.00086803      -0.02729102
C        2.46906968       4.26610047      17.30376445       10       0.00104872      -0.00225344      -0.03501221
C        3.68108803       4.96575811      17.30376445       10      -0.00089519       0.00256284      -0.04086264
C        1.25705955       6.36539750      17.30376445       10      -0.00105813      -0.00055923      -0.04032283
C        2.46905478       7.06513842      17.30376445       10      -0.00164039       0.00008682      -0.03829664
C        0.04503593       8.46447086      17.30376445       10      -0.00055222       0.00049078      -0.04284426
C        1.25697346       9.16432598      17.30376445       10       0.00045423       0.00137505      -0.03505020
C        7.31698568       0.06766598      17.30376445       10      -0.00049930      -0.00159604      -0.03581347
C        8.52904772       0.76740954      17.30376445       10      -0.00095456      -0.00072660      -0.03495294
C        6.10499745       2.16689172      17.30376445       10      -0.00067637       0.00000016      -0.02798313
C        7.31696103       2.86661770      17.30376445       10       0.00095483      -0.00104836      -0.02851891
C        4.89301923       4.26607115      17.30376445       10       0.00131244      -0.00152826      -0.02897115
C        6.10499902       4.96578291      17.30376445       10       0.00102462       0.00002254      -0.02925050
C        3.68102448       6.36527995      17.30376445       10       0.00209712       0.00001510      -0.03441684
C        4.89310380       7.06505234      17.30376445       10      -0.00226116      -0.00138769      -0.03538797
C        2.46896256       8.46463956      17.30376445       10       0.00281293       0.00051569      -0.03137935
C        3.68100805       9.16437780      17.30376445       10      -0.00111195       0.00018959      -0.03126360
C        9.74108610       0.06762841      17.30376445       10       0.00068899       0.00052663      -0.03570909
C       10.95313653       0.76737684      17.30376445       10      -0.00135744      -0.00064894      -0.03977491
C        8.52894389       2.16685309      17.30376445       10      -0.00038670       0.00208288      -0.04115111
C        9.74094300       2.86658224      17.30376445       10       0.00152457      -0.00161166      -0.03405110
C        7.31698319       4.26605932      17.30376445       10      -0.00067748       0.00065678      -0.02988398
C        8.52893533       4.96579603      17.30376445       10       0.00114652      -0.00045317      -0.04157505
C        6.10504991       6.36523842      17.30376445       10      -0.00007916       0.00146771      -0.04174952
C        7.31700880       7.06508790      17.30376445       10      -0.00031024      -0.00188996      -0.03427829
C        4.89294957       8.46459503      17.30376445       10       0.00378584       0.00157693      -0.03826941
C        6.10500146       9.16434741      17.30376445       10       0.00005972      -0.00007644      -0.03616582
