130
Lattice="12.12 0.0 0.0 -6.06 10.496227893867395 0.0 0.0 0.0 40.0" Properties=species:S:1:pos:R:3:tags:I:1:forces:R:3 energy=-1202.3400873522585 stress="0.002899224150333962 -8.03375076184648e-08 -9.495187658260538e-08 -8.03375076184648e-08 0.002899168139349176 -8.962037455825252e-08 -9.495187658260538e-08 -8.962037455825252e-08 0.002589593390307208" pbc="T T F"
C       -0.00000554       0.00000734      10.00670689        2       0.00012008       0.00027438      -0.00519850
Ti      -0.00003787       1.74939147      11.30488134        0      -0.00035562      -0.00158983       0.00671277
Ti       1.51512393       0.87471816       8.71832253        0      -0.00022872      -0.00031800      -0.00174650
O        0.00003306       1.74927133       7.78063861        1      -0.00003676       0.00003718       0.00152301
O        1.51568107       0.87493290      12.23008024        3       0.00082008       0.00103481      -0.00918200
C       -1.51506658       2.62407418      10.00631061        2       0.00018428       0.00055461      -0.00449275
Ti      -1.51563055       4.37314333      11.30537759        0      -0.00046722      -0.00022146       0.00578552
Ti      -0.00001273       3.49878881       8.71826846        0      -0.00026024      -0.00044695      -0.00120656
O       -1.51467074       4.37345117       7.78025388        1      -0.00007703      -0.00006971       0.00129972
O       -0.00017401       3.49924152      12.23008024        3       0.00059447       0.00115254      -0.00822684
C       -3.03001558       5.24812674      10.00566742        2       0.00011527      -0.00009831      -0.00408081
Ti      -3.03059605       6.99692795      11.30539525        0      -0.00061298       0.00090563       0.00610687
Ti      -1.51506089       6.12276196       8.71807110        0      -0.00048413      -0.00007586      -0.00112691
O       -3.02976139       6.99776019       7.78023244        1      -0.00002112      -0.00007882       0.00133919
O       -1.51578856       6.12226823      12.23008024        3       0.00051790      -0.00037217      -0.01548451
C       -4.54498210       7.87211363      10.00623375        2       0.00012477      -0.00045805      -0.00482403
Ti      -4.54512236       9.62158420      11.30531930        0      -0.00051042      -0.00037622       0.00712258
Ti      -3.02999749       8.74681604       8.71839448        0      -0.00037004       0.00008536      -0.00157368
O       -4.54504679       9.62163361       7.78065574        1      -0.00003602       0.00001614       0.00150022
O       -3.02991003       8.74654129      12.23008024        3       0.00069575      -0.00008109      -0.00746531
C        3.03001016      -0.00000534      10.00647420        2       0.00055220       0.00042926      -0.00442599
Ti       3.03030050       1.74973953      11.30595511        0      -0.00107367      -0.00183551       0.00591164
Ti       4.54506782       0.87479452       8.71807066        0       0.00002349      -0.00001146      -0.00128017
O        3.02968412       1.74915576       7.78034180        1       0.00004969       0.00008256       0.00114521
O        4.54594599       0.87573507      12.23008024        3       0.00066138       0.00109530      -0.00583377
C        1.51500411       2.62404481      10.00643547        2       0.00050307       0.00075615      -0.00377253
Ti       1.51539875       4.37307766      11.30540509        0      -0.00110219      -0.00063742       0.00496453
Ti       3.03015947       3.49874712       8.71796219        0       0.00022158      -0.00025358      -0.00090236
O        1.51476487       4.37345349       7.78040011        1       0.00004794      -0.00006767       0.00087339
O        3.03170216       3.49920542      12.23008024        3       0.00044434       0.00066377      -0.00785904
C       -0.00002622       5.24809351      10.00640488        2       0.00049905       0.00013030      -0.00340903
Ti       0.00000027       6.99734965      11.30525906        0      -0.00121276       0.00049046       0.00501559
Ti       1.51509351       6.12275715       8.71813315        0       0.00011652       0.00008391      -0.00076272
O        0.00006608       6.99752629       7.78052483        1      -0.00004571      -0.00003025       0.00094997
O        1.51557684       6.12227127      12.23008024        3       0.00030043      -0.00052498      -0.01386486
C       -1.51502593       7.87214197      10.00648286        2       0.00052582      -0.00019282      -0.00391908
Ti      -1.51512570       9.62200178      11.30546218        0      -0.00121670      -0.00072528       0.00587853
Ti       0.00001131       8.74692459       8.71817844        0      -0.00003763       0.00032812      -0.00114466
O       -1.51504688       9.62131883       7.78046020        1      -0.00000292       0.00003518       0.00124034
O       -0.00010576       8.74742848      12.23008024        3       0.00015385      -0.00031031      -0.01266308
C        6.06003100      -0.00005614      10.00604829        2      -0.00013705      -0.00004379      -0.00397972
Ti       6.06001915       1.75024365      11.30537040        0       0.00062178      -0.00067633       0.00639892
Ti       7.57494964       0.87479137       8.71793496        0       0.00012438       0.00017940      -0.00159544
O        6.05995694       1.74892654       7.77981171        1       0.00002993       0.00013811       0.00164571
O        7.57423722       0.87602372      12.23008024        3      -0.00089035       0.00056114      -0.00875430
C        4.54496084       2.62398894      10.00526921        2      -0.00023310       0.00038219      -0.00356292
Ti       4.54582368       4.37305038      11.30515133        0       0.00062169       0.00050152       0.00572254
Ti       6.06000104       3.49871269       8.71668345        0       0.00021434      -0.00003499      -0.00076420
O        4.54464375       4.37353772       7.77974305        1       0.00007507      -0.00007905       0.00135159
O        6.05995810       3.49854128      12.23008024        3      -0.00088828       0.00004931      -0.02578777
C        3.03002066       5.24815294      10.00586727        2      -0.00020525      -0.00017821      -0.00305702
Ti       3.03065221       6.99694674      11.30556938        0       0.00066055       0.00157343       0.00544720
Ti       4.54507835       6.12267961       8.71767997        0       0.00043740       0.00011774      -0.00093104
O        3.02976191       6.99772870       7.78037381        1       0.00010472      -0.00009334       0.00107620
O        4.54584768       6.12154034      12.23008024        3      -0.00055735      -0.00138982      -0.01349236
C        1.51505397       7.87218652      10.00664634        2      -0.00011382      -0.00056992      -0.00352921
Ti       1.51501710       9.62217269      11.30554620        0       0.00068642       0.00023192       0.00631932
Ti       3.03003083       8.74683946       8.71852931        0       0.00031038       0.00035244      -0.00157728
O        1.51507931       9.62125405       7.78045109        1       0.00000214       0.00009881       0.00139950
O        3.03018178       8.74684913      12.23008024        3      -0.00068316      -0.00085910      -0.00660730
C        9.08994414       0.00004331      10.00644081        2      -0.00062169      -0.00015631      -0.00483849
Ti       9.08967727       1.74992350      11.30559831        0       0.00102029      -0.00063479       0.00692205
Ti      10.60486478       0.87469901       8.71837272        0      -0.00004685      -0.00009928      -0.00204169
O        9.09032490       1.74910904       7.78016987        1      -0.00012272       0.00004507       0.00173379
O       10.60392299       0.87502618      12.23008024        3      -0.00062873       0.00042805      -0.01209453
C        7.57502779       2.62404699      10.00512123        2      -0.00041992       0.00024521      -0.00416259
Ti       7.57417192       4.37306310      11.30484460        0       0.00098939       0.00057872       0.00663541
Ti       9.08984598       3.49875543       8.71769106        0      -0.00018596      -0.00020223      -0.00147678
O        7.57525839       4.37353565       7.77959530        1      -0.00006437      -0.00011888       0.00179668
O        9.08839573       3.49920732      12.23008024        3      -0.00047932       0.00036351      -0.01519503
C        6.06004584       5.24812263      10.00498913        2      -0.00044031      -0.00044898      -0.00379080
Ti       6.06014847       6.99689660      11.30543654        0       0.00103872       0.00167712       0.00659775
Ti       7.57494335       6.12267541       8.71753339        0      -0.00012866       0.00000071      -0.00121796
O        6.05996371       6.99790006       7.78007627        1      -0.00005408      -0.00011096       0.00149039
O        7.57458076       6.12158416      12.23008024        3      -0.00035462      -0.00091758      -0.01759765
C        4.54501044       7.87210127      10.00632291        2      -0.00054719      -0.00084858      -0.00450892
Ti       4.54513735       9.62163360      11.30579807        0       0.00104415       0.00042990       0.00713377
Ti       6.05998305       8.74670225       8.71840523        0       0.00002046       0.00012457      -0.00193834
O        4.54504778       9.62159578       7.78068514        1      -0.00002489      -0.00000074       0.00161845
O        6.05986995       8.74558501      12.23008024        3      -0.00041178      -0.00089080      -0.01289764
C        0.04505356       0.06757648      16.16692235       10      -0.00400774      -0.00275193      -0.01145085
C        1.25697883       0.76725153      16.16692235       10       0.00220033       0.00106861      -0.00099933
C       -1.16704608       2.16688049      16.16692235       10       0.00058364      -0.00609161       0.00188633
C        0.04497716       2.86667273      16.16692235       10       0.00059792       0.00143255       0.00141718
C       -2.37873552       4.26615892      16.16692235       10      -0.00035298      -0.00351410       0.00619899
C       -1.16676092       4.96594501      16.16692235       10       0.00127137       0.00121385       0.01789880
C       -3.59063958       6.36553172      16.16692235       10      -0.00126031      -0.00390727       0.00585703
C       -2.37856523       7.06512489      16.16692235       10      -0.00114827       0.00283326       0.01735377
C       -4.80302710       8.46462167      16.16692235       10      -0.00189003      -0.00153635       0.00366860
C       -3.59097221       9.16430128      16.16692235       10       0.00482417      -0.00149917       0.00413080
C        2.46908723       0.06753783      16.16692235       10      -0.00233340       0.00223819       0.00350926
C        3.68098199       0.76714637      16.16692235       10      -0.00307271      -0.00333118       0.00250085
C        1.25692478       2.16681857      16.16692235       10       0.00066504      -0.00387031       0.00121454
C        2.46871489       2.86645475      16.16692235       10      -0.00136110       0.00163236       0.00153466
C        0.04509515       4.26617303      16.16692235       10      -0.00151241      -0.00188867       0.00255236
C        1.25698069       4.96588254      16.16692235       10      -0.00076512       0.00181508       0.02075276
C       -1.16657943       6.36540483      16.16692235       10      -0.00654104      -0.00222328      -0.01047188
C        0.04522381       7.06499874      16.16692235       10      -0.00189440       0.00087881       0.04100355
C       -2.37888572       8.46455115      16.16692235       10      -0.00153347       0.00145173       0.00147769
C       -1.16692597       9.16421699      16.16692235       10       0.00080678      -0.00638872       0.02258743
C        4.89307045       0.06732229      16.16692235       10      -0.00166900       0.00641504       0.00445059
C        6.10503569       0.76711127      16.16692235       10      -0.00279800      -0.00384324       0.00219212
C        3.68075338       2.16670549      16.16692235       10       0.00251274      -0.00054542       0.01512905
C        4.89263371       2.86648261      16.16692235       10       0.00118848      -0.00191765      -0.02584107
C        2.46880915       4.26604188      16.16692235       10       0.00264083       0.00062883       0.00511812
C        3.68074144       4.96595515      16.16692235       10      -0.00254818      -0.00048833      -0.00315524
C        1.25706277       6.36532827      16.16692235       10      -0.00110099       0.00191916      -0.01055247
C        2.46891393       7.06516535      16.16692235       10      -0.00261371       0.00069403       0.02090422
C        0.04497054       8.46432476      16.16692235       10       0.00287131       0.00395045      -0.01126234
C        1.25684727       9.16420953      16.16692235       10       0.00165828      -0.00632614       0.02260147
C        7.31705322       0.06730674      16.16692235       10      -0.00074169       0.00642070       0.00411680
C        8.52910340       0.76715031      16.16692235       10       0.00162077      -0.00148207       0.00107042
C        6.10470820       2.16669175      16.16692235       10       0.00191316      -0.00088893       0.01043265
C        7.31677143       2.86643777      16.16692235       10       0.00652214       0.00217481      -0.03220665
C        4.89277382       4.26608490      16.16692235       10       0.00079957      -0.00161944       0.00968291
C        6.10491267       4.96585034      16.16692235       10       0.00157695       0.00194501      -0.03587209
C        3.68084039       6.36552402      16.16692235       10       0.00137271      -0.00151339       0.00448256
C        4.89294240       7.06524724      16.16692235       10      -0.00063482       0.00403114      -0.00152394
C        2.46885893       8.46456130      16.16692235       10       0.00312941       0.00346930      -0.00033297
C        3.68085445       9.16433546      16.16692235       10       0.00241130      -0.00220268       0.00688986
C        9.74109882       0.06756801      16.16692235       10      -0.00477407       0.00144982       0.00559060
C       10.95306765       0.76727281      16.16692235       10       0.00208107       0.00152014       0.00032821
C        8.52888921       2.16677889      16.16692235       10       0.00121166      -0.00299679       0.01460264
C        9.74110453       2.86647930      16.16692235       10       0.00120951       0.00382251      -0.00148477
C        7.31707958       4.26609827      16.16692235       10      -0.00124922      -0.00117975       0.01254786
C        8.52927969       4.96589821      16.16692235       10       0.00034094       0.00338857      -0.01022158
C        6.10502734       6.36541515      16.16692235       10      -0.00063238      -0.00130934       0.01514844
C        7.31718293       7.06520679      16.16692235       10      -0.00047369       0.00607133      -0.00307749
C        4.89295609       8.46463634      16.16692235       10      -0.00216573      -0.00101455       0.00550820
C        6.10489255       9.16435809      16.16692235       10       0.00418194       0.00276002       0.00129766
