130
Lattice="12.12 0.0 0.0 -6.06 10.496227893867395 0.0 0.0 0.0 40.0" Properties=species:S:1:pos:R:3:tags:I:1:forces:R:3 energy=-1200.1726889033282 stress="0.0027026699715069344 -2.4744521506021485e-07 -2.69110043901591e-07 -2.4744521506021485e-07 0.002703083340594618 -3.507364462195333e-07 -2.69110043901591e-07 -3.507364462195333e-07 0.002998919428941679" pbc="T T F"
C       -0.00000681      -0.00000457      10.00051784        2       0.00002396       0.00003211      -0.00088347
Ti      -0.00008423       1.75063379      11.28792874        0       0.00014033      -0.00019504      -0.00057320
Ti       1.51503041       0.87467219       8.70861893        0       0.00004099       0.00001078      -0.00005105
O       -0.00007155       1.74963430       7.76970336        1      -0.00008085      -0.00006013      -0.00007469
O        1.51274653       0.87359512      12.23008024        3      -0.00016507      -0.00026201      -0.27362478
C       -1.51507662       2.62407713      10.00214079        2       0.00035770      -0.00015401       0.00016544
Ti      -1.51450372       4.37525681      11.29100544        0       0.00026524       0.00022879       0.00130242
Ti       0.00002127       3.49914943       8.70938543        0       0.00006796       0.00012660       0.00046679
O       -1.51545552       4.37334245       7.77029718        1      -0.00082689      -0.00040326       0.00122362
O        0.00055631       3.49920310      12.23008024        3      -0.00021615       0.00026116      -0.27689508
C       -3.03019344       5.24800595      10.00308600        2       0.00000117      -0.00005590       0.00117578
Ti      -3.02839773       6.99728657      11.29058279        0       0.00017610       0.00033235       0.00112047
Ti      -1.51497233       6.12282388       8.70955815        0      -0.00012361      -0.00011452       0.00032972
O       -3.03034820       6.99709649       7.77025520        1      -0.00088567      -0.00040188       0.00123737
O       -1.51291577       6.12421369      12.23008024        3       0.00023101       0.00006831      -0.28684430
C       -4.54508469       7.87212262      10.00228285        2       0.00005495       0.00011493       0.00020773
Ti      -4.54395032       9.62082739      11.28839256        0      -0.00000030       0.00006972       0.00002874
Ti      -3.02967296       8.74669672       8.70933846        0       0.00010554      -0.00005543       0.00077680
O       -4.54487027       9.62134163       7.76971020        1      -0.00014041      -0.00022937       0.00010309
O       -3.02912669       8.74737784      12.23008024        3       0.00004126      -0.00013981      -0.27910158
C        3.02990882       0.00003333      10.00182311        2      -0.00029030      -0.00023990      -0.00018588
Ti       3.02891117       1.74852660      11.29208739        0      -0.00117330      -0.00078119       0.00189092
Ti       4.54497941       0.87467563       8.71033622        0      -0.00018402       0.00024252       0.00224760
O        3.03049272       1.74969799       7.77034375        1       0.00028556       0.00014953       0.00156684
O        4.54370181       0.87300932      12.23008024        3      -0.00064296      -0.00072112      -0.26481809
C        1.51501483       2.62403725      10.00186442        2      -0.00040293      -0.00011301       0.00009462
Ti       1.51462668       4.37541485      11.29089208        0      -0.00092150       0.00037930       0.00097510
Ti       3.02999019       3.49871209       8.71051650        0       0.00008926      -0.00008571       0.00243773
O        1.51538281       4.37336419       7.77025135        1       0.00045592      -0.00052363       0.00077131
O        3.02813842       3.49820737      12.23008024        3      -0.00098245      -0.00010110      -0.26330722
C       -0.00005494       5.24782242      10.00126377        2       0.00000652       0.00036233      -0.00024909
Ti       0.00027396       6.99795469      11.28810750        0      -0.00004212       0.00013769      -0.00120738
Ti       1.51500037       6.12282731       8.70949548        0       0.00023619      -0.00011809      -0.00036699
O       -0.00001847       6.99739464       7.76982707        1      -0.00031042      -0.00007741      -0.00052121
O        1.51314801       6.12437957      12.23008024        3       0.00001877       0.00012903      -0.28895567
C       -1.51535679       7.87224259      10.00106890        2       0.00032042      -0.00009999      -0.00033555
Ti      -1.51359858       9.62026050      11.29049125        0      -0.00013275      -0.00066274       0.00109337
Ti       0.00001677       8.74683780       8.70934657        0       0.00005928       0.00015805      -0.00026977
O       -1.51491464       9.62187743       7.77011365        1      -0.00033303       0.00052628       0.00066918
O        0.00028548       8.74456989      12.23008024        3       0.00016115       0.00014054      -0.28948474
C        6.06000181       0.00022728      10.00240498        2      -0.00009114      -0.00019809       0.00055281
Ti       6.05987171       1.74842394      11.29060891        0      -0.00014046      -0.00065589       0.00130578
Ti       7.57505423       0.87464231       8.71036682        0      -0.00007094       0.00038751       0.00226142
O        6.06005074       1.74978465       7.77075205        1       0.00007742       0.00059594       0.00287171
O        7.57588674       0.87325458      12.23008024        3       0.00027405      -0.00069109      -0.26657871
C        4.54480810       2.62391111      10.00338153        2      -0.00047267      -0.00029056       0.00192262
Ti       4.54440981       4.37341867      11.29104346        0      -0.00047276      -0.00020032       0.00178316
Ti       6.06001881       3.49874856       8.71095307        0      -0.00010137       0.00002474       0.00299677
O        4.54535356       4.37331405       7.77085391        1       0.00062614      -0.00024021       0.00310530
O        6.05969864       3.49823185      12.23008024        3      -0.00054644      -0.00041806      -0.26438792
C        3.03023557       5.24798437      10.00275121        2      -0.00034345       0.00006985       0.00086319
Ti       3.02850662       6.99743312      11.29014261        0      -0.00039221       0.00044127       0.00049234
Ti       4.54499350       6.12284298       8.71057957        0       0.00018706      -0.00032318       0.00265479
O        3.03035305       6.99716113       7.77021419        1       0.00097424      -0.00025137       0.00079202
O        4.54457930       6.12381619      12.23008024        3      -0.00075286       0.00028434      -0.26593205
C        1.51536422       7.87231415      10.00088452        2      -0.00009732      -0.00001663      -0.00052934
Ti       1.51396948       9.62031300      11.29011070        0       0.00024291      -0.00037420       0.00067836
Ti       3.02971942       8.74669432       8.70943222        0       0.00003759      -0.00006516       0.00046358
O        1.51495201       9.62192146       7.77011057        1       0.00025175       0.00078156       0.00067786
O        3.02930930       8.74692696      12.23008024        3       0.00007504       0.00022511      -0.28120153
C        9.09011218       0.00011435      10.00202312        2       0.00030708      -0.00015714       0.00002167
Ti       9.09045594       1.74856995      11.29221307        0       0.00097244      -0.00082388       0.00221333
Ti      10.60490212       0.87464489       8.70886908        0      -0.00005310       0.00001128       0.00037095
O        9.08951783       1.74973491       7.77042752        1      -0.00034543       0.00039854       0.00211378
O       10.60743926       0.87353088      12.23008024        3       0.00004414       0.00006194      -0.27329846
C        7.57510005       2.62396319      10.00353987        2       0.00001584      -0.00024577       0.00214802
Ti       7.57514116       4.37334907      11.29139140        0      -0.00014337      -0.00041538       0.00190731
Ti       9.09005110       3.49871297       8.71071273        0      -0.00020950      -0.00006540       0.00306823
O        7.57472103       4.37329898       7.77092014        1      -0.00041831      -0.00020584       0.00354307
O        9.09125499       3.49822624      12.23008024        3       0.00066532      -0.00015085      -0.26340182
C        6.05999942       5.24812343      10.00366844        2      -0.00019766      -0.00009365       0.00238673
Ti       6.05969604       6.99790226      11.29246090        0      -0.00001523       0.00059018       0.00258621
Ti       7.57500648       6.12284583       8.71072569        0      -0.00021429      -0.00023867       0.00325559
O        6.06003220       6.99686253       7.77052438        1       0.00017840      -0.00055120       0.00241606
O        7.57513078       6.12375042      12.23008024        3       0.00019229       0.00041093      -0.26426205
C        4.54515554       7.87215939      10.00223415        2      -0.00001074       0.00021789       0.00031595
Ti       4.54399261       9.62098189      11.28923670        0       0.00035095      -0.00008511       0.00027905
Ti       6.05994374       8.74675790       8.70903911        0      -0.00001559      -0.00023829       0.00095326
O        4.54484010       9.62140480       7.76977879        1       0.00029357      -0.00002437       0.00033579
O        6.06012593       8.74965025      12.23008024        3       0.00003699      -0.00009702      -0.27317528
C        0.04504697       0.06757541      15.31429077       10       0.00805291       0.00506466       0.09763734
C        1.25694837       0.76718609      15.31429077       10      -0.00617917       0.00076058       0.11421897
C       -1.16668920       2.16630889      15.31429077       10      -0.00327343       0.00596876       0.08022166
C        0.04504705       2.86662607      15.31429077       10       0.00028309       0.00243729       0.10923006
C       -2.37900437       4.26584172      15.31429077       10      -0.00446132       0.00227888       0.08362634
C       -1.16680810       4.96609145      15.31429077       10       0.00057425       0.00067815       0.06028164
C       -3.59126564       6.36532360      15.31429077       10      -0.00474749       0.00453497       0.08542963
C       -2.37880315       7.06520682      15.31429077       10       0.00291947      -0.00289979       0.05678215
C       -4.80335439       8.46486717      15.31429077       10       0.00669682       0.00340079       0.07936350
C       -3.59085165       9.16423049      15.31429077       10      -0.00418861       0.00009599       0.10355900
C        2.46854731       0.06769245      15.31429077       10      -0.00037342      -0.00427593       0.08440907
C        3.68085921       0.76706368      15.31429077       10       0.00511385       0.00501685       0.09197590
C        1.25685401       2.16634301      15.31429077       10       0.00139603      -0.00053169       0.08219600
C        2.46876475       2.86659610      15.31429077       10       0.00227535       0.00026348       0.09544799
C        0.04491874       4.26566603      15.31429077       10       0.00280735      -0.00078370       0.11203350
C        1.25677170       4.96607978      15.31429077       10      -0.00026837      -0.00214810       0.05840732
C       -1.16724367       6.36529556      15.31429077       10       0.00505396       0.00218467       0.11461615
C        0.04494082       7.06527763      15.31429077       10       0.00072590      -0.00214001       0.03770880
C       -2.37939779       8.46474717      15.31429077       10       0.00137948      -0.00114782       0.11243321
C       -1.16696114       9.16407860      15.31429077       10       0.00184911       0.00635791       0.05242030
C        4.89276445       0.06792217      15.31429077       10      -0.00166266      -0.00625241       0.09565480
C        6.10507394       0.76698473      15.31429077       10       0.00149953       0.00332606       0.07889486
C        3.68090996       2.16677465      15.31429077       10      -0.00300475       0.00061536       0.06226583
C        4.89308924       2.86648680      15.31429077       10      -0.00015213      -0.00066424       0.10288729
C        2.46904465       4.26578801      15.31429077       10      -0.00119534       0.00061616       0.08991644
C        3.68074661       4.96598325      15.31429077       10       0.00147600      -0.00034815       0.08436997
C        1.25698616       6.36527595      15.31429077       10       0.00043467       0.00056957       0.11513029
C        2.46861029       7.06514456      15.31429077       10       0.00301073      -0.00021367       0.04977078
C        0.04495806       8.46485406      15.31429077       10      -0.00147043      -0.00319180       0.11746367
C        1.25688672       9.16407124      15.31429077       10       0.00161432       0.00665558       0.04748131
C        7.31735621       0.06796661      15.31429077       10      -0.00171541      -0.00599318       0.09788248
C        8.52927633       0.76710113      15.31429077       10      -0.00176892       0.00126392       0.08806967
C        6.10512583       2.16692538      15.31429077       10      -0.00048157       0.00249237       0.05943564
C        7.31716566       2.86650607      15.31429077       10      -0.00483604      -0.00219901       0.10708833
C        4.89311331       4.26589495      15.31429077       10       0.00045541       0.00246628       0.05792980
C        6.10500614       4.96570754      15.31429077       10      -0.00246620       0.00081402       0.11236041
C        3.68131062       6.36537325      15.31429077       10      -0.00193857       0.00000765       0.09340540
C        4.89289491       7.06524766      15.31429077       10      -0.00130409       0.00070016       0.08727577
C        2.46927049       8.46473596      15.31429077       10      -0.00471840      -0.00483802       0.11289911
C        3.68083270       9.16412724      15.31429077       10       0.00004441       0.00442495       0.09564458
C        9.74149356       0.06761763      15.31429077       10       0.00481040       0.00017287       0.08410455
C       10.95329192       0.76717848      15.31429077       10      -0.00688851      -0.00322147       0.11183407
C        8.52933537       2.16686261      15.31429077       10      -0.00263614       0.00294667       0.05986582
C        9.74133128       2.86666748      15.31429077       10       0.00470962      -0.00440798       0.09568240
C        7.31693409       4.26595846      15.31429077       10      -0.00053439      -0.00049832       0.05857757
C        8.52916845       4.96597863      15.31429077       10       0.00461222      -0.00231841       0.09084257
C        6.10506899       6.36531731      15.31429077       10      -0.00011957      -0.00197007       0.05765447
C        7.31706398       7.06530675      15.31429077       10       0.00364114      -0.00592502       0.09162841
C        4.89322591       8.46487750      15.31429077       10       0.00678612      -0.00034645       0.08101271
C        6.10503752       9.16454941      15.31429077       10      -0.00782016      -0.00505783       0.11026807
