131
Lattice="12.12 0.0 0.0 -6.06 10.496227893867395 0.0 0.0 0.0 40.0" Properties=species:S:1:pos:R:3:tags:I:1:forces:R:3 energy=-1204.0686513478481 stress="0.0028447798122847225 -7.778436582046578e-08 -6.398040505281982e-07 -7.778436582046578e-08 0.0028448176695529694 3.6797493372512265e-07 -6.398040505281982e-07 3.6797493372512265e-07 0.002014517488785765" pbc="T T F"
C       -0.00093789       0.00047964      10.00431103        2      -0.00043540       0.00020765      -0.00028549
Ti      -0.00056725       1.74986861      11.31347612        0      -0.00022042      -0.00022650      -0.00003833
Ti       1.51546225       0.87418978       8.69517392        0      -0.00032220       0.00005140       0.00045126
O        0.00111659       1.74886442       7.77201527        1      -0.00000922       0.00023170       0.00004294
O        1.51356689       0.87592700      12.23159545        3      -0.00037424       0.00003027       0.12785997
C       -1.51489761       2.62400192      10.00239835        2      -0.00015834       0.00007829       0.00013694
Ti      -1.51531957       4.37151708      11.31215262        0      -0.00027953       0.00056767       0.00117747
Ti      -0.00025360       3.49904079       8.69043629        0       0.00016372       0.00002112       0.00072583
O       -1.51514891       4.37527376       7.77233453        1       0.00010932       0.00014990       0.00084752
O        0.00055887       3.49896851      12.23159545        3      -0.00027986      -0.00024390       0.12286851
C       -3.03000540       5.24693646      10.00545683        2       0.00000807      -0.00032730       0.00009965
Ti      -3.02935390       6.99848490      11.33093262        0       0.00033927       0.00174291       0.00234203
Ti      -1.51504473       6.12238280       8.69801647        0      -0.00019201      -0.00016867       0.00100359
O       -3.02907175       6.99887328       7.77900548        1      -0.00003771       0.00022156       0.00154803
O       -1.51551193       6.12185708      12.23159545        3      -0.00004528       0.00023038       0.12449274
C       -4.54511290       7.87222513      10.00781830        2      -0.00030103       0.00007085       0.00006552
Ti      -4.54649223       9.62259433      11.32221971        0       0.00150036      -0.00088771       0.00203027
Ti      -3.03031355       8.74696273       8.69946761        0      -0.00013726       0.00009504       0.00111799
O       -4.54335171       9.62063753       7.77655406        1       0.00013224      -0.00009031       0.00106552
O       -3.03199625       8.74776428      12.23159545        3      -0.00021971       0.00008127       0.03836398
C        3.02983017      -0.00001477      10.00810706        2      -0.00021451       0.00024132       0.00001550
Ti       3.02965447       1.74966746      11.31155562        0      -0.00009372      -0.00063350       0.00180998
Ti       4.54472385       0.87420249       8.69609262        0       0.00017144       0.00016645       0.00076793
O        3.03027161       1.74762433       7.77329977        1       0.00006935      -0.00019366       0.00084548
O        4.54558894       0.87370449      12.23159545        3      -0.00001649       0.00000440       0.14011231
C        1.51529899       2.62431974      10.00292668        2      -0.00011063      -0.00020798       0.00023377
Ti       1.51491315       4.37362115      11.31330034        0      -0.00046974      -0.00035523      -0.00027439
Ti       3.02987937       3.49807052       8.69066539        0       0.00003349       0.00030404       0.00025545
O        1.51482463       4.37375381       7.77144599        1      -0.00001142       0.00019651       0.00000561
O        3.03084676       3.49925512      12.23159545        3       0.00012390       0.00038107       0.13906742
C        0.00015174       5.24755593      10.00401119        2      -0.00013875       0.00003236       0.00055780
Ti      -0.00226713       6.99893995      11.31918786        0      -0.00066851       0.00041702       0.00261469
Ti       1.51437958       6.12318475       8.69216259        0       0.00012233      -0.00007906       0.00053127
O       -0.00200166       6.99868185       7.77637872        1      -0.00029536       0.00019423       0.00146386
O        1.51462681       6.12320579      12.23159545        3       0.00067753      -0.00038240       0.12689310
C       -1.51545822       7.87242940      10.01214744        2      -0.00005739       0.00003607      -0.00016308
Ti      -1.51545909       9.62046507      11.33214000        0      -0.00129933      -0.00104063       0.00221489
Ti       0.00040497       8.74708479       8.69813434        0       0.00000971       0.00026473       0.00095536
O       -1.51573147       9.62010176       7.77929583        1      -0.00020216      -0.00006036       0.00146100
O        0.00101553       8.74786044      12.23159545        3      -0.00014820      -0.00005344       0.11300868
C        6.06100509       0.00061468      10.00575523        2       0.00030689       0.00017045       0.00008770
Ti       6.06074332       1.74913903      11.31285801        0      -0.00024137      -0.00033924       0.00067179
Ti       7.57418079       0.87437651       8.69193001        0       0.00010601       0.00002741       0.00057782
O        6.05878359       1.74829344       7.77210384        1      -0.00011140       0.00014125       0.00053115
O        7.57576069       0.87579984      12.23159545        3      -0.00001410       0.00016376       0.14701280
C        4.54500120       2.62421258      10.00303722        2      -0.00003489      -0.00029390       0.00013646
Ti       4.54533852       4.37316729      11.31417596        0       0.00021630      -0.00019301      -0.00054961
Ti       6.06044519       3.49849819       8.68982129        0      -0.00030642       0.00014618       0.00066389
O        4.54501829       4.37334610       7.77123085        1      -0.00010231       0.00004674      -0.00034897
O        6.06000933       3.49892974      12.23159545        3       0.00012340      -0.00000343       0.19385200
C        3.02967264       5.24830570      10.00262301        2      -0.00007435       0.00002678      -0.00052094
Ti       3.02994004       6.99747535      11.31325653        0       0.00002898       0.00057855      -0.00026670
Ti       4.54553295       6.12319177       8.69064420        0      -0.00027139      -0.00017982       0.00018334
O        3.02961803       6.99748269       7.77141157        1      -0.00019817      -0.00008922      -0.00000585
O        4.54524916       6.12181290      12.23159545        3      -0.00024405      -0.00027551       0.14808832
C        1.51565484       7.87236460      10.00392773        2      -0.00008505       0.00011550       0.00058273
Ti       1.51668476       9.62295292      11.31214953        0      -0.00069940      -0.00010606       0.00127931
Ti       3.02958764       8.74691859       8.69044056        0       0.00006065      -0.00014123       0.00074255
O        1.51327829       9.62078741       7.77241047        1      -0.00009449      -0.00017227       0.00086958
O        3.03008927       8.74607365      12.23159545        3       0.00008520       0.00033944       0.12352896
C        9.09015346      -0.00004454      10.00245777        2      -0.00009939       0.00010119       0.00012893
Ti       9.09011631       1.74939624      11.31317210        0      -0.00003761       0.00001058      -0.00066694
Ti      10.60531298       0.87448967       8.69032946        0      -0.00005882       0.00002601       0.00047406
O        9.08962791       1.74950081       7.77148814        1      -0.00007212       0.00008816      -0.00034132
O       10.60479504       0.87487462      12.23159545        3      -0.00006103       0.00005182       0.12311381
C        7.57457303       2.62425887      10.00219708        2       0.00000764      -0.00004340       0.00029158
Ti       7.57553530       4.37275601      11.31282379        0       0.00018593       0.00033530       0.00057687
Ti       9.08988558       3.49951899       8.69171502        0      -0.00000820      -0.00005922       0.00059061
O        7.57529116       4.37488306       7.77198183        1      -0.00020546       0.00003280       0.00049636
O        9.08945897       3.49778012      12.23159545        3      -0.00017369      -0.00007512       0.15681757
C        6.05986149       5.24795722      10.00279833        2       0.00020144       0.00016937       0.00013434
Ti       6.05964297       6.99757105      11.31161116        0       0.00042975       0.00040522       0.00165060
Ti       7.57530542       6.12326842       8.69583711        0      -0.00003309      -0.00024710       0.00076697
O        6.06158287       6.99812082       7.77316082        1       0.00020791      -0.00001092       0.00079359
O        7.57560880       6.12221047      12.23159545        3      -0.00014898      -0.00006689       0.15076272
C        4.54495624       7.87179254      10.00283900        2       0.00009497       0.00020436       0.00022427
Ti       4.54437225       9.62175694      11.31346467        0       0.00006987       0.00038108      -0.00008215
Ti       6.06062430       8.74670360       8.69497642        0      -0.00019459       0.00017769       0.00047954
O        4.54594955       9.62087461       7.77194444        1      -0.00017427      -0.00013484       0.00004996
O        6.05821382       8.74712687      12.23159545        3      -0.00026237       0.00022576       0.12748174
C        0.04107702       0.07005664      17.81711524       10      -0.00173829      -0.00017781      -0.02464267
C        1.24980533       0.77051445      17.80182319       10       0.00347483      -0.00059959      -0.01293418
C       -1.16906611       2.16776398      17.82243594       10      -0.00077113      -0.00065940      -0.03484047
C        0.04262766       2.86731158      17.80472551       10      -0.00052037      -0.00097730      -0.02071435
C       -2.38071592       4.26466649      17.81711524       10      -0.00077434      -0.00199385      -0.01707536
C       -1.16945692       4.96114923      17.80182319       10      -0.00074326      -0.00021964      -0.02911620
C       -3.58617046       6.36714879      17.75400449       10      -0.00021516      -0.00115907       0.01194731
C       -2.38045581       7.04839987      17.71218227       10      -0.00056329       0.00261885      -0.10498902
C       -4.80052310       8.47102157      17.75400449       10      -0.00168060      -0.00049121      -0.00859687
C       -3.60728140       9.17394136      17.71218227       10       0.00525535      -0.00132911      -0.09956503
C        2.46471553       0.06268539      17.75400449       10       0.00170282      -0.00294497      -0.00482783
C        3.67936194       0.76755408      17.72192581       10      -0.00038615       0.00002455      -0.06644156
C        1.25490555       2.16837349      17.79078022       10      -0.00005679      -0.00075018      -0.03840936
C        2.46645540       2.86635793      17.76886581       10      -0.00062192       0.00121760      -0.02502149
C        0.04370368       4.26637908      17.79078022       10      -0.00041966      -0.00043321      -0.02053871
C        1.25384573       4.96665523      17.76886581       10       0.00006622       0.00002597      -0.03911697
C       -1.17485197       6.36692859      17.75400449       10      -0.00205166       0.00020998       0.02174576
C        0.04261754       7.06665019      17.72192581       10      -0.00043898      -0.00064771      -0.11121604
C       -2.37957006       8.46503504      17.25937661       10       0.00085827       0.00060436      -0.37463098
C       -1.15326829       9.17426842      17.71218227       10      -0.00070452      -0.00081306      -0.10289890
C        4.89393169       0.06284754      17.75400449       10       0.00043843      -0.00020840       0.01475464
C        6.10876601       0.77059559      17.80182319       10       0.00060608       0.00040415      -0.03996095
C        3.67948899       2.16386341      17.75425952       10      -0.00027112       0.00091023      -0.05834478
C        4.89257922       2.86641257      17.76886581       10       0.00013361       0.00117676      -0.04904653
C        2.46765238       4.26708029      17.76618420       10      -0.00034343       0.00088583      -0.03317933
C        3.67968692       4.96685388      17.76118343       10      -0.00133627       0.00030521      -0.06650170
C        1.25204072       6.36838263      17.75425952       10       0.00026340      -0.00008011      -0.02228849
C        2.46689145       7.06768699      17.76886581       10      -0.00008730       0.00065648      -0.04827731
C        0.03964544       8.47090243      17.75400449       10       0.00061127      -0.00020882       0.02110700
C        1.25984810       9.16900984      17.80182319       10       0.00075207       0.00112880      -0.03066120
C        7.31741572       0.07001865      17.81711524       10       0.00239980       0.00175729      -0.01375207
C        8.52932702       0.76981112      17.82405376       10       0.00211711       0.00188938      -0.02445429
C        6.10381101       2.16860533      17.79078022       10       0.00097601       0.00047360      -0.04038824
C        7.31591829       2.86741743      17.80472551       10       0.00133986       0.00004431      -0.03962620
C        4.89165946       4.26713665      17.76618420       10      -0.00170456       0.00106668      -0.05764999
C        6.10525322       4.96660498      17.76886581       10      -0.00169150       0.00030850      -0.05784797
C        3.67970427       6.36634292      17.76618420       10      -0.00130950      -0.00057310      -0.02978885
C        4.89217747       7.06772732      17.76886581       10      -0.00123742      -0.00083259      -0.03238626
C        2.46816683       8.46578980      17.79078022       10       0.00124170       0.00098866      -0.01957638
C        3.67931258       9.16623403      17.80472551       10       0.00059633       0.00122315      -0.02164078
C        9.73930017       0.06917850      17.82243594       10      -0.00073419      -0.00046846      -0.02982924
C       10.94882250       0.76985852      17.82405376       10       0.00296358       0.00037052      -0.01908442
C        8.52746995       2.16786024      17.82243594       10       0.00121462      -0.00012830      -0.04262260
C        9.73910801       2.86521571      17.82405376       10       0.00093083      -0.00179908      -0.02359408
C        7.31519167       4.26655478      17.79078022       10      -0.00208026      -0.00082893      -0.04704946
C        8.52829675       4.96125217      17.80182319       10       0.00001056      -0.00275133      -0.03978520
C        6.10707612       6.36840472      17.75425952       10      -0.00099480       0.00011328      -0.05866420
C        7.31623226       7.06668042      17.72192581       10       0.00043572      -0.00083450      -0.07074430
C        4.89088045       8.46591772      17.79078022       10      -0.00130548      -0.00130685      -0.03596812
C        6.09890170       9.16915432      17.80182319       10       0.00270965       0.00110819      -0.01320971
O       -2.37759122       8.46275462      15.92482424       11      -0.00115640       0.00110246      -0.00720811
