130
Lattice="12.12 0.0 0.0 -6.06 10.496227893867395 0.0 0.0 0.0 40.0" Properties=species:S:1:pos:R:3:tags:I:1:forces:R:3 energy=-1200.570744741819 stress="0.0027808021524992135 -3.002952056219383e-08 6.081963540234143e-08 -3.002952056219383e-08 0.0027805564095706244 1.2083615341026606e-07 6.081963540234143e-08 1.2083615341026606e-07 0.0024993960075995153" pbc="T T F"
C       -0.00003146      -0.00005391      10.00541416        2       0.00023083      -0.00005366       0.00252860
Ti       0.00008203       1.74917498      11.31897310        0      -0.00031440      -0.00043386       0.00012984
Ti       1.51493868       0.87466826       8.70175330        0       0.00036408       0.00014661      -0.00277139
O        0.00006840       1.74902617       7.77705794        1       0.00012633       0.00040442       0.00177685
O        1.51620251       0.87522213      12.23159545        3       0.00012484      -0.00004545       0.00166680
C       -1.51507094       2.62401093      10.00437158        2       0.00069393      -0.00055829       0.00201951
Ti      -1.51556781       4.37354151      11.31766113        0      -0.00028278      -0.00029520      -0.00113968
Ti      -0.00001682       3.49841168       8.70111396        0      -0.00005168       0.00051463      -0.00220703
O       -1.51421297       4.37325266       7.77553375        1      -0.00014942       0.00020779       0.00157361
O       -0.00012990       3.49931978      12.23159545        3       0.00046808      -0.00042743      -0.01199516
C       -3.03011271       5.24803024      10.00185590        2       0.00050544       0.00038923       0.00120043
Ti      -3.03042866       6.99694820      11.31731522        0      -0.00007787       0.00064667      -0.00117890
Ti      -1.51519015       6.12267709       8.69967094        0       0.00029802       0.00009512      -0.00161868
O       -3.02964920       6.99816865       7.77529742        1      -0.00001528      -0.00024910       0.00162218
O       -1.51592315       6.12252584      12.23159545        3      -0.00015654       0.00014308      -0.00982047
C       -4.54509666       7.87210758      10.00397548        2      -0.00008103       0.00110392       0.00211014
Ti      -4.54502665       9.62154854      11.31901164        0      -0.00019780      -0.00030186       0.00020491
Ti      -3.03027246       8.74698550       8.70080327        0       0.00040189      -0.00023345      -0.00235742
O       -4.54530132       9.62187078       7.77687524        1       0.00036917      -0.00007915       0.00195005
O       -3.02940484       8.74631348      12.23159545        3      -0.00032656      -0.00000778      -0.01366294
C        3.03008350       0.00015500      10.00428588        2      -0.00101491      -0.00043853       0.00207591
Ti       3.03097247       1.74995234      11.31843951        0       0.00057761       0.00014276      -0.00087535
Ti       4.54494309       0.87485371       8.69931435        0       0.00037058      -0.00009864      -0.00193146
O        3.02901684       1.74884387       7.77559270        1       0.00022534       0.00028763       0.00157826
O        4.54707376       0.87731401      12.23159545        3      -0.00000481       0.00098208      -0.01329227
C        1.51516433       2.62410620      10.00455232        2      -0.00088614      -0.00099997       0.00156753
Ti       1.51553316       4.37375663      11.31785021        0      -0.00013349      -0.00083828      -0.00219882
Ti       3.03010413       3.49865901       8.69936186        0       0.00014415       0.00034436      -0.00151330
O        1.51430055       4.37325174       7.77569725        1       0.00034941       0.00011787       0.00153512
O        3.03336775       3.49943368      12.23159545        3       0.00083191       0.00012601      -0.01287463
C       -0.00001310       5.24781932      10.00369560        2      -0.00048085      -0.00051148       0.00115841
Ti       0.00000721       6.99768716      11.31452759        0      -0.00022542      -0.00007762      -0.00154997
Ti       1.51508329       6.12271295       8.69964994        0      -0.00003250       0.00006676      -0.00132932
O        0.00000035       6.99749225       7.77530046        1       0.00011768      -0.00008772       0.00128162
O        1.51573057       6.12275577      12.23159545        3      -0.00011575       0.00033747      -0.00822650
C       -1.51527509       7.87222341      10.00342908        2      -0.00085025       0.00030589       0.00162008
Ti      -1.51454708       9.62191182      11.31716406        0      -0.00038674      -0.00020514      -0.00122474
Ti      -0.00002784       8.74694007       8.69960847        0       0.00002884       0.00003327      -0.00160283
O       -1.51538442       9.62109063       7.77554373        1       0.00015054       0.00011198       0.00151629
O        0.00008151       8.74760825      12.23159545        3      -0.00007228       0.00037809      -0.00838909
C        6.05998350       0.00039014      10.00222180        2       0.00006600      -0.00046289       0.00115042
Ti       6.06011057       1.75046358      11.31477084        0       0.00003784       0.00023945      -0.00028859
Ti       7.57503693       0.87491201       8.69898793        0      -0.00029492      -0.00028057      -0.00184224
O        6.05989598       1.74856020       7.77358101        1      -0.00001384       0.00046626       0.00136165
O        7.57326995       0.87762653      12.23159545        3       0.00001679       0.00118333      -0.01395024
C        4.54479966       2.62398791      10.00099721        2      -0.00071175      -0.00074384       0.00025282
Ti       4.54593401       4.37304967      11.31437367        0       0.00054233      -0.00023218      -0.00045336
Ti       6.06000699       3.49877043       8.69728162        0       0.00000721       0.00006687      -0.00142339
O        4.54422901       4.37363575       7.77344498        1       0.00021602      -0.00008634       0.00152666
O        6.06032787       3.49929506      12.23159545        3       0.00029398       0.00013326      -0.01608242
C        3.03018702       5.24800025      10.00220039        2      -0.00030241       0.00010718       0.00056476
Ti       3.03031622       6.99702428      11.31680684        0       0.00033275       0.00050434      -0.00169594
Ti       4.54518911       6.12268831       8.69874690        0      -0.00036239      -0.00011708      -0.00153269
O        3.02960549       6.99807444       7.77524968        1       0.00012624      -0.00035610       0.00152940
O        4.54698009       6.11959851      12.23159545        3       0.00099134      -0.00017786      -0.01175722
C        1.51524402       7.87221746      10.00331289        2       0.00015092       0.00061825       0.00132419
Ti       1.51464718       9.62196085      11.31655202        0       0.00021539       0.00005081      -0.00116043
Ti       3.03024415       8.74700736       8.70056038        0      -0.00036742      -0.00018829      -0.00220544
O        1.51530996       9.62102184       7.77533970        1      -0.00021213       0.00010403       0.00146986
O        3.02904239       8.74628635      12.23159545        3       0.00045968      -0.00018432      -0.01483352
C        9.08999546       0.00017521      10.00398620        2       0.00091016      -0.00029195       0.00199758
Ti       9.08912817       1.74998010      11.31807957        0      -0.00130310       0.00054735      -0.00057297
Ti      10.60506791       0.87470831       8.70159886        0      -0.00040252       0.00008837      -0.00293390
O        9.09100563       1.74882588       7.77532348        1      -0.00028170       0.00024973       0.00141566
O       10.60380573       0.87522709      12.23159545        3       0.00075992      -0.00028160      -0.00257615
C        7.57511235       2.62394967      10.00056130        2       0.00089478      -0.00053978       0.00066650
Ti       7.57407397       4.37290735      11.31372560        0       0.00003731       0.00015262       0.00047348
Ti       9.08984708       3.49872601       8.69911796        0      -0.00006251       0.00025320      -0.00212945
O        7.57564548       4.37366576       7.77329430        1      -0.00030470      -0.00005722       0.00136751
O        9.08628146       3.49953591      12.23159545        3      -0.00139896      -0.00006554      -0.01146775
C        6.05993768       5.24822479      10.00021117        2       0.00011689       0.00103635       0.00040610
Ti       6.06005528       6.99625607      11.31752298        0       0.00008099      -0.00083073      -0.00037240
Ti       7.57488202       6.12264517       8.69882538        0       0.00014428      -0.00009021      -0.00207075
O        6.06000433       6.99862221       7.77500760        1      -0.00011916      -0.00040993       0.00153927
O        7.57332771       6.11915442      12.23159545        3      -0.00086165      -0.00083002      -0.00974389
C        4.54511055       7.87206978      10.00386134        2       0.00042506       0.00120919       0.00165269
Ti       4.54480432       9.62130890      11.31909693        0       0.00066793       0.00064878      -0.00011023
Ti       6.06003284       8.74688386       8.70138162        0      -0.00001356      -0.00044395      -0.00279606
O        4.54536646       9.62184075       7.77679519        1      -0.00032377      -0.00027908       0.00171264
O        6.05999716       8.74539048      12.23159545        3       0.00018312      -0.00020509      -0.00567086
C        0.04533726       0.06754490      16.31054282       10      -0.00482010       0.00026719       0.01398177
C        1.25798736       0.76767518      16.31054282       10      -0.00771951      -0.00338939      -0.01046556
C       -1.16766282       2.16708378      16.31054282       10       0.00215202      -0.00046395       0.00321637
C        0.04465766       2.86787907      16.31054282       10       0.00469996      -0.00196261       0.00765655
C       -2.37970959       4.26602875      16.31054282       10      -0.00123519      -0.00004383       0.00846012
C       -1.16743725       4.96642200      16.31054282       10      -0.00162190      -0.00234195       0.02139818
C       -3.59122757       6.36457754      16.31054282       10      -0.00378079       0.00181007       0.00861412
C       -2.37879558       7.06433710      16.31054282       10      -0.00252756       0.00197017       0.02248821
C       -4.80320430       8.46392355      16.31054282       10       0.00427248       0.00050839       0.00163484
C       -3.59000542       9.16354973      16.31054282       10      -0.00180511       0.00001568       0.01117785
C        2.46966984       0.06789347      16.31054282       10      -0.00710941      -0.00103377      -0.00072700
C        3.68272098       0.76770556      16.31054282       10      -0.00521737      -0.00055688      -0.00205518
C        1.25719315       2.16705971      16.31054282       10       0.00357257      -0.00248645       0.00251850
C        2.46993333       2.86749000      16.31054282       10       0.00274236       0.00034691      -0.00406796
C        0.04491274       4.26626072      16.31054282       10       0.00016349      -0.00214801      -0.00535505
C        1.25740668       4.96654986      16.31054282       10      -0.00093540      -0.00045726       0.02423282
C       -1.16718729       6.36515466      16.31054282       10      -0.00153872      -0.00161292      -0.01726189
C        0.04510848       7.06496388      16.31054282       10      -0.00064652       0.00167337       0.04931784
C       -2.37903498       8.46426798      16.31054282       10      -0.00002701       0.00197336      -0.00796494
C       -1.16638770       9.16410169      16.31054282       10       0.00073655       0.00192456       0.02846655
C        4.89357731       0.06808506      16.31054282       10      -0.00391999      -0.00131766       0.00364636
C        6.10525297       0.76825901      16.31054282       10      -0.00259440      -0.00198144      -0.00648650
C        3.68176601       2.16730719      16.31054282       10       0.00241947       0.00080415       0.01009971
C        4.89380800       2.86711372      16.31054282       10       0.00167286       0.00134137      -0.02606254
C        2.46965851       4.26602173      16.31054282       10      -0.00015305       0.00033641       0.00564402
C        3.68186516       4.96550736      16.31054282       10       0.00000665      -0.00058943      -0.00889722
C        1.25740097       6.36527847      16.31054282       10      -0.00170704      -0.00143960      -0.02124835
C        2.46910082       7.06465458      16.31054282       10      -0.00206660      -0.00120594       0.02849491
C        0.04486407       8.46454664      16.31054282       10       0.00287310       0.00241558      -0.02473631
C        1.25622805       9.16433549      16.31054282       10       0.00445277       0.00144540       0.03173430
C        7.31680405       0.06818158      16.31054282       10      -0.00081567      -0.00172865       0.00470516
C        8.52776353       0.76782260      16.31054282       10      -0.00067077      -0.00158467      -0.00165133
C        6.10491268       2.16725997      16.31054282       10       0.00066791      -0.00136543       0.02015692
C        7.31602267       2.86703992      16.31054282       10       0.00144613       0.00186706      -0.02525896
C        4.89332370       4.26589070      16.31054282       10       0.00081476       0.00026313       0.02373618
C        6.10504964       4.96479541      16.31054282       10      -0.00004128       0.00181105      -0.02575335
C        3.68155394       6.36477086      16.31054282       10      -0.00223573      -0.00061655       0.00719456
C        4.89302319       7.06351444      16.31054282       10      -0.00288849       0.00215458      -0.00505725
C        2.46863228       8.46449141      16.31054282       10       0.00558471       0.00022850      -0.01223155
C        3.67964124       9.16364909      16.31054282       10       0.00685032       0.00089258       0.01657422
C        9.74081503       0.06796808      16.31054282       10       0.00077290      -0.00006587      -0.00228819
C       10.95251068       0.76760323      16.31054282       10      -0.00510921      -0.00090093      -0.00870952
C        8.52797183       2.16740170      16.31054282       10       0.00231454      -0.00163669       0.01403631
C        9.73953468       2.86749587      16.31054282       10       0.00385132      -0.00149827      -0.00674442
C        7.31657055       4.26575066      16.31054282       10       0.00176864       0.00238966       0.02643502
C        8.52807679       4.96529738      16.31054282       10       0.00118082       0.00039407      -0.01198550
C        6.10527809       6.36419633      16.31054282       10      -0.00414235       0.00154479       0.01716022
C        7.31730964       7.06346899      16.31054282       10      -0.00201804       0.00024957      -0.00842879
C        4.89279691       8.46392276      16.31054282       10       0.00742343       0.00312151      -0.00081187
C        6.10469950       9.16334415      16.31054282       10       0.00404485      -0.00076880      -0.00862980
