131
Lattice="12.12 0.0 0.0 -6.06 10.496227893867395 0.0 0.0 0.0 40.0" Properties=species:S:1:pos:R:3:tags:I:1:forces:R:3 energy=-1204.3843770651024 stress="0.0028426593607610512 2.1231584208983472e-07 1.4654319849702241e-06 2.1231584208983472e-07 0.0028428235170487003 -6.292482337626579e-07 1.4654319849702241e-06 -6.292482337626579e-07 0.0020600506442454997" pbc="T T F"
C       -0.00085116       0.00049400      10.00483416        2      -0.00021123       0.00012596      -0.00023920
Ti       0.00000998       1.74915292      11.31321011        0       0.00010189      -0.00040000      -0.00026576
Ti       1.51536309       0.87434939       8.69593274        0      -0.00006327      -0.00018722       0.00055680
O        0.00126069       1.74886293       7.77227879        1       0.00026443       0.00009879       0.00005913
O        1.51489409       0.87531429      12.23159545        3      -0.00005914      -0.00018058       0.14922546
C       -1.51485373       2.62372599      10.00282056        2       0.00009821      -0.00008934       0.00020180
Ti      -1.51538784       4.37069824      11.31207002        0      -0.00002841       0.00058535       0.00109539
Ti      -0.00011261       3.49902257       8.69141825        0       0.00034261      -0.00015950       0.00086854
O       -1.51493071       4.37538120       7.77278330        1       0.00033674       0.00013974       0.00096331
O        0.00077633       3.49842455      12.23159545        3      -0.00006077      -0.00039435       0.15578005
C       -3.02988296       5.24667768      10.00570961        2       0.00022338      -0.00047833       0.00022936
Ti      -3.02888031       6.99866064      11.33031224        0       0.00064856       0.00166865       0.00245034
Ti      -1.51484618       6.12164727       8.69915632        0       0.00001109      -0.00019716       0.00121561
O       -3.02841804       6.99899370       7.77974976        1       0.00019519       0.00011822       0.00159608
O       -1.51574309       6.11995295      12.23159545        3       0.00011254      -0.00013823       0.11933699
C       -4.54469774       7.87211249      10.00843132        2      -0.00004254      -0.00011655       0.00010490
Ti      -4.54540607       9.62190581      11.32297168        0       0.00193722      -0.00105670       0.00189847
Ti      -3.03039303       8.74702216       8.70003836        0       0.00018746      -0.00008242       0.00129412
O       -4.54302779       9.62049010       7.77724326        1       0.00046850      -0.00024979       0.00098435
O       -3.03233922       8.74776709      12.23159545        3      -0.00009592       0.00001898       0.04371432
C        3.03018507      -0.00028328      10.00885715        2       0.00008459       0.00009425       0.00005804
Ti       3.03043643       1.74941172      11.31148280        0       0.00014239      -0.00083712       0.00159566
Ti       4.54486803       0.87407418       8.69664630        0       0.00039626       0.00009965       0.00093570
O        3.03034402       1.74740776       7.77365810        1       0.00026428      -0.00034118       0.00079116
O        4.54635627       0.87360873      12.23159545        3       0.00032849       0.00002608       0.17167836
C        1.51556358       2.62389675      10.00333467        2       0.00011880      -0.00043940       0.00040861
Ti       1.51498024       4.37331261      11.31291625        0      -0.00022984      -0.00047628      -0.00030642
Ti       3.02994315       3.49803833       8.69101239        0       0.00025292       0.00013629       0.00041041
O        1.51478555       4.37387960       7.77194926        1       0.00015762       0.00004399       0.00002364
O        3.03153406       3.49918259      12.23159545        3       0.00049851       0.00017686       0.14908748
C        0.00026225       5.24719645      10.00489693        2       0.00010198      -0.00008110       0.00075548
Ti      -0.00305654       6.99946369      11.32151499        0      -0.00058963       0.00037970       0.00235140
Ti       1.51444765       6.12311239       8.69355921        0       0.00040185      -0.00021319       0.00063325
O       -0.00212772       6.99880507       7.77786937        1      -0.00001968       0.00005277       0.00152960
O        1.51590254       6.12223170      12.23159545        3       0.00112881      -0.00062780       0.12898006
C       -1.51513340       7.87229551      10.01538762        2       0.00017824      -0.00010303      -0.00004547
Ti      -1.51540315       9.62015610      11.33139382        0      -0.00109013      -0.00127304       0.00249440
Ti       0.00109362       8.74729949       8.69923874        0       0.00019672       0.00012356       0.00121918
O       -1.51547908       9.61955023       7.78004142        1       0.00004102      -0.00017276       0.00157564
O        0.00235078       8.74892412      12.23159545        3       0.00024200      -0.00005336       0.09458076
C        6.06130203       0.00067130      10.00614566        2       0.00055704       0.00009279       0.00024250
Ti       6.06053480       1.74921259      11.31258419        0      -0.00003867      -0.00051550       0.00039049
Ti       7.57424585       0.87453084       8.69255672        0       0.00021548      -0.00008230       0.00071071
O        6.05871933       1.74812895       7.77218821        1       0.00009559       0.00005220       0.00050995
O        7.57556891       0.87713375      12.23159545        3       0.00024273       0.00033917       0.16399511
C        4.54506226       2.62427869      10.00317174        2       0.00018463      -0.00035998       0.00014377
Ti       4.54542481       4.37317360      11.31333558        0       0.00048670      -0.00031484      -0.00086935
Ti       6.06053064       3.49844347       8.69015982        0      -0.00016768       0.00011041       0.00076775
O        4.54493504       4.37341164       7.77123414        1       0.00003305      -0.00001861      -0.00046612
O        6.06018819       3.49901642      12.23159545        3       0.00036514      -0.00011999       0.12103786
C        3.02986012       5.24821499      10.00302014        2       0.00023741      -0.00010544      -0.00038920
Ti       3.03013573       6.99759813      11.31294703        0       0.00028762       0.00046262      -0.00034828
Ti       4.54557672       6.12321359       8.69091496        0       0.00001661      -0.00028300       0.00038501
O        3.02944604       6.99749054       7.77192704        1       0.00006397      -0.00014413       0.00001026
O        4.54568029       6.12137533      12.23159545        3       0.00013896      -0.00049383       0.14215108
C        1.51602044       7.87244368      10.00499534        2       0.00017881       0.00001029       0.00077238
Ti       1.51737678       9.62340164      11.31208092        0      -0.00059841      -0.00025936       0.00118101
Ti       3.02969721       8.74683946       8.69146316        0       0.00030754      -0.00018222       0.00085979
O        1.51327212       9.62054540       7.77291216        1       0.00005955      -0.00030613       0.00098297
O        3.03100298       8.74640165      12.23159545        3       0.00039635       0.00027849       0.15503461
C        9.09039561       0.00010020      10.00282679        2       0.00013176       0.00000486       0.00022089
Ti       9.09018508       1.74945957      11.31266686        0       0.00029257      -0.00016469      -0.00099543
Ti      10.60530202       0.87449562       8.69066024        0       0.00008245      -0.00003616       0.00069844
O        9.08977099       1.74942454       7.77154081        1       0.00000765       0.00002733      -0.00035895
O       10.60456084       0.87492336      12.23159545        3       0.00013055      -0.00002117       0.13242264
C        7.57446112       2.62436988      10.00203363        2       0.00017389      -0.00009835       0.00042910
Ti       7.57539554       4.37315230      11.31235824        0       0.00047381       0.00019212       0.00029441
Ti       9.08975233       3.49942466       8.69228674        0       0.00019118      -0.00009369       0.00072031
O        7.57538651       4.37503079       7.77199535        1       0.00002308      -0.00007767       0.00045623
O        9.08810851       3.49758936      12.23159545        3      -0.00015891      -0.00028582       0.16023228
C        6.05989274       5.24798351      10.00295551        2       0.00039977       0.00005908       0.00014058
Ti       6.06021121       6.99702410      11.31134218        0       0.00080425       0.00036711       0.00140669
Ti       7.57552327       6.12325998       8.69628660        0       0.00014641      -0.00036168       0.00093527
O        6.06179304       6.99819401       7.77343425        1       0.00043917      -0.00004318       0.00073715
O        7.57637471       6.12194746      12.23159545        3       0.00004256      -0.00036197       0.16237875
C        4.54542167       7.87174643      10.00320190        2       0.00043819       0.00016228       0.00043540
Ti       4.54535103       9.62165598      11.31320418        0       0.00037215       0.00022228      -0.00031520
Ti       6.06048912       8.74670453       8.69577704        0       0.00014523       0.00014226       0.00054217
O        4.54601951       9.62076280       7.77224841        1       0.00006847      -0.00026298       0.00003302
O        6.05922960       8.74620201      12.23159545        3       0.00003046       0.00007080       0.15615785
C        0.04084093       0.07015841      17.67500998       10      -0.00219137      -0.00004336      -0.05947640
C        1.24948213       0.77073888      17.65971793       10       0.00331084      -0.00039796      -0.00280669
C       -1.16913270       2.16797704      17.68033068       10      -0.00124953      -0.00044716      -0.04674359
C        0.04248431       2.86749076      17.66262025       10      -0.00096342      -0.00073423      -0.00848704
C       -2.38059244       4.26495296      17.67500998       10      -0.00117520      -0.00178059      -0.01795360
C       -1.16948442       4.96119258      17.65971793       10      -0.00112915      -0.00000887      -0.03672267
C       -3.58615970       6.36740239      17.61189923       10      -0.00053526      -0.00095606       0.00358836
C       -2.38067922       7.04863986      17.57007701       10      -0.00089998       0.00290546      -0.12096896
C       -4.80090538       8.47122435      17.61189923       10      -0.00226985      -0.00037427      -0.00428401
C       -3.60797489       9.17441076      17.57007701       10       0.00494366      -0.00116996      -0.11878346
C        2.46443100       0.06294684      17.61189923       10       0.00141637      -0.00285187      -0.01131930
C        3.67892516       0.76755246      17.57982055       10      -0.00071095       0.00015247      -0.07199182
C        1.25465921       2.16870721      17.64867496       10      -0.00049626      -0.00054579      -0.05086143
C        2.46607101       2.86634233      17.62676055       10      -0.00104601       0.00145792      -0.02809174
C        0.04354636       4.26659664      17.64867496       10      -0.00082379      -0.00019950      -0.01517603
C        1.25361925       4.96663791      17.62676055       10      -0.00027924       0.00019158      -0.05073591
C       -1.17497895       6.36709014      17.61189923       10      -0.00248586       0.00037091       0.03188885
C        0.04242844       7.06671550      17.57982055       10      -0.00079897      -0.00051076      -0.10044596
C       -2.38036191       8.46544526      17.11727135       10       0.00043210       0.00086285      -0.32647976
C       -1.15374031       9.17432818      17.57007701       10      -0.00109283      -0.00065419      -0.12863642
C        4.89368726       0.06269668      17.61189923       10       0.00013993      -0.00003596       0.00861775
C        6.10850692       0.77037970      17.65971793       10       0.00023143       0.00056750      -0.03469392
C        3.67909737       2.16381694      17.61215426       10      -0.00068814       0.00109297      -0.04212524
C        4.89207358       2.86625318      17.62676055       10      -0.00031540       0.00138756      -0.06267447
C        2.46721937       4.26733603      17.62407894       10      -0.00070646       0.00110433      -0.03810595
C        3.67926498       4.96702976      17.61907817       10      -0.00172385       0.00049432      -0.05225587
C        1.25179027       6.36850918      17.61215426       10      -0.00003203       0.00004073      -0.01128243
C        2.46675781       7.06782997      17.62676055       10      -0.00042456       0.00084235      -0.05311042
C        0.03936275       8.47093733      17.61189923       10       0.00022291      -0.00005251       0.03066265
C        1.25973087       9.16907971      17.65971793       10       0.00026977       0.00133437      -0.04520157
C        7.31722992       0.06981480      17.67500998       10       0.00204651       0.00197263      -0.00853530
C        8.52938991       0.76973559      17.68194850       10       0.00178787       0.00202282      -0.02341128
C        6.10356608       2.16825670      17.64867496       10       0.00054923       0.00061797      -0.05881415
C        7.31592424       2.86731951      17.66262025       10       0.00098630       0.00019569      -0.06187484
C        4.89118269       4.26730999      17.62407894       10      -0.00209879       0.00126989      -0.06994110
C        6.10503079       4.96701920      17.62676055       10      -0.00201180       0.00047535      -0.06759278
C        3.67924736       6.36659863      17.62407894       10      -0.00161530      -0.00040438      -0.03629148
C        4.89197764       7.06813795      17.62676055       10      -0.00152976      -0.00064278      -0.03742848
C        2.46787584       8.46586644      17.64867496       10       0.00078144       0.00120065      -0.00849168
C        3.67907586       9.16632613      17.66262025       10       0.00010538       0.00140184      -0.01410494
C        9.73907049       0.06909778      17.68033068       10      -0.00118231      -0.00038724      -0.03942436
C       10.94866482       0.76994875      17.68194850       10       0.00273202       0.00056601      -0.00487153
C        8.52745121       2.16778015      17.68033068       10       0.00084332      -0.00006655      -0.04506473
C        9.73917556       2.86520365      17.68194850       10       0.00051030      -0.00160674      -0.01850918
C        7.31525217       4.26679856      17.64867496       10      -0.00240300      -0.00068674      -0.06591132
C        8.52835637       4.96149610      17.65971793       10      -0.00028202      -0.00258870      -0.03858800
C        6.10686038       6.36883009      17.61215426       10      -0.00127151       0.00029631      -0.04807261
C        7.31607194       7.06713279      17.57982055       10       0.00017931      -0.00068264      -0.07996392
C        4.89042747       8.46606932      17.64867496       10      -0.00185093      -0.00117226      -0.04178733
C        6.09854556       9.16935752      17.65971793       10       0.00238185       0.00128221      -0.00314265
O       -2.38293706       8.46440500      15.78341851       11      -0.00185588       0.00175257      -0.00702218
