132
Lattice="12.12 0.0 0.0 -6.06 10.496227893867395 0.0 0.0 0.0 40.0" Properties=species:S:1:pos:R:3:tags:I:1:forces:R:3 energy=-1210.7824525666158 stress="0.002882232845694793 3.2519696662712206e-06 -2.751106364023951e-06 3.2519696662712206e-06 0.002886579483518393 2.474342329767542e-07 -2.751106364023951e-06 2.474342329767542e-07 0.0024723167063906456" pbc="T T F"
C       -0.12157283       0.07007555      10.00815799        2      -0.00047460      -0.00129287       0.00317626
Ti      -0.12452806       1.82058085      11.31473357        0      -0.00145422      -0.00002191       0.00063647
Ti       1.39247951       0.94510201       8.71829124        0       0.00186152      -0.00033518       0.00403415
O       -0.12351127       1.82024346       7.78118177        1       0.00137719      -0.00201350       0.00583783
O        1.39779569       0.94229581      12.23008024        3      -0.00081307      -0.00030182       0.10146084
C       -1.63685199       2.69371069      10.01516301        2      -0.00085154      -0.00043879       0.00319120
Ti      -1.63236949       4.44552928      11.29797395        0       0.00165780      -0.00215805       0.00043889
Ti      -0.12106500       3.56853511       8.71971748        0      -0.00084638       0.00015784      -0.00088282
O       -1.63682922       4.44123065       7.77989603        1      -0.00264116       0.00156089       0.00350793
O       -0.11814988       3.57276075      12.23008024        3       0.00440180       0.00188853       0.01343755
C       -3.15197411       5.31843913      10.00569292        2       0.00343614      -0.00048855       0.00281919
Ti      -3.15222138       7.06687291      11.29872957        0      -0.00119860      -0.00125477      -0.00208129
Ti      -1.63687463       6.19251782       8.71412493        0       0.00122915       0.00050178       0.00804203
O       -3.15137011       7.06684439       7.77664262        1       0.00168770      -0.00064565      -0.00092786
O       -1.63715697       6.19672269      12.23008024        3      -0.00247992      -0.00062172       0.08174702
C       -4.66693804       7.94216620      10.00364572        2       0.00002576      -0.00071233       0.00325903
Ti      -4.66626521       9.69118279      11.29948168        0      -0.00223675      -0.00104009      -0.00123515
Ti      -3.15172989       8.81715637       8.71527064        0      -0.00158267       0.00069560       0.00102693
O       -4.66725325       9.69241085       7.77771900        1      -0.00014154       0.00183402       0.00105422
O       -3.15074050       8.81682383      12.23008024        3      -0.00054665      -0.00071668       0.08405590
C        2.90852713       0.06991316      10.00418772        2      -0.00138707       0.00082078       0.00295131
Ti       2.90875210       1.81918696      11.29851928        0      -0.00121071       0.00153707      -0.00255890
Ti       4.42312166       0.94456923       8.71469386        0      -0.00177852       0.00235489       0.00192699
O        2.90715182       1.81925688       7.77738411        1      -0.00201386      -0.00103753       0.00210801
O        4.42303392       0.94374771      12.23008024        3      -0.00044345       0.00035955       0.08264754
C        1.39280580       2.69403505      10.00778897        2       0.00097013       0.00102723       0.00322426
Ti       1.39338330       4.44278983      11.30117334        0      -0.00081641       0.00016600      -0.00245722
Ti       2.90846716       3.56884880       8.71545192        0      -0.00147105       0.00037209       0.00224120
O        1.39086020       4.44238456       7.77848941        1       0.00144694      -0.00137784       0.00002709
O        2.90881753       3.56859557      12.23008024        3       0.00513921       0.00277089       0.08368747
C       -0.12171434       5.31862570      10.00633175        2       0.00061301      -0.00014546       0.00436485
Ti      -0.12160051       7.06855239      11.29888587        0      -0.00092271       0.00073072      -0.00038050
Ti       1.39360503       6.19308285       8.71568351        0       0.00333667      -0.00151791       0.00355598
O       -0.12183314       7.06685867       7.77627564        1      -0.00445128      -0.00207485       0.00176980
O        1.39424190       6.19459438      12.23008024        3      -0.00020319       0.00070892       0.06681308
C       -1.63622209       7.94223599      10.00381724        2      -0.00120909      -0.00160669       0.00181480
Ti      -1.63663410       9.69179301      11.29889040        0      -0.00110287      -0.00008113      -0.00266893
Ti      -0.12145312       8.81690812       8.71492692        0       0.00010614      -0.00046906       0.00367809
O       -1.63661138       9.69150445       7.77598377        1      -0.00022228       0.00002743       0.00186302
O       -0.12120463       8.81706498      12.23008024        3      -0.00533280       0.00085938       0.08216665
C        5.93854916       0.06982800      10.00378675        2       0.00061927       0.00148245       0.00325153
Ti       5.93879440       1.82014530      11.29898782        0      -0.00029165       0.00162971      -0.00282776
Ti       7.45346194       0.94503256       8.71464644        0      -0.00081693      -0.00062900       0.00552061
O        5.93925542       1.81936135       7.77673116        1       0.00154151      -0.00235877       0.00081999
O        7.44927982       0.94458354      12.23008024        3      -0.00183549       0.00120818       0.09182160
C        4.42281619       2.69437299      10.00347222        2       0.00044119       0.00072739       0.00400552
Ti       4.42224531       4.44337268      11.29791125        0       0.00194220       0.00015355      -0.00235562
Ti       5.93781938       3.56887450       8.71457895        0       0.00059260       0.00255450      -0.00078603
O        4.42294881       4.44219290       7.77521343        1       0.00035861       0.00341863       0.00314612
O        5.93774014       3.56824618      12.23008024        3      -0.00028766       0.00009639       0.08788303
C        2.90898592       5.31875044      10.00290393        2       0.00194074       0.00003652       0.00328044
Ti       2.90889818       7.06741756      11.29855654        0      -0.00088010       0.00064896      -0.00355421
Ti       4.42296268       6.19299819       8.71333988        0       0.00072209      -0.00129544       0.00251109
O        2.90743212       7.06810461       7.77539312        1      -0.00021881      -0.00022178       0.00042159
O        4.42304712       6.19244930      12.23008024        3       0.00073571      -0.00057864       0.06756584
C        1.39364041       7.94184184      10.00339775        2      -0.00217034       0.00114261       0.00342721
Ti       1.39293172       9.69200597      11.29948562        0      -0.00173403      -0.00063766      -0.00047814
Ti       2.90850476       8.81638726       8.71623093        0       0.00254140      -0.00310148       0.00180314
O        1.39426067       9.69215418       7.77680526        1      -0.00223225       0.00362654       0.00076777
O        2.90692748       8.81508446      12.23008024        3      -0.00125024      -0.00076489       0.08004513
C        8.96810873       0.06948681      10.00721052        2      -0.00093802      -0.00145774       0.00382876
Ti       8.96965033       1.81302075      11.30059891        0       0.00172410      -0.00116378       0.00081681
Ti      10.48372535       0.94416402       8.72028358        0      -0.00015391       0.00035078      -0.00009700
O        8.97020678       1.82014931       7.78008066        1      -0.00181798       0.00222828       0.00304787
O       10.48419220       0.93681447      12.23008024        3       0.00003598      -0.00355675      -0.04069368
C        7.45328522       2.69381440      10.00627471        2       0.00169140      -0.00309049       0.00322194
Ti       7.44729783       4.44673451      11.29079553        0       0.00262474      -0.00058149      -0.00818929
Ti       8.96777481       3.56876765       8.72118340        0      -0.00078010      -0.00069465      -0.00018012
O        7.45575959       4.44179851       7.77747908        1      -0.00171407       0.00225123       0.00318144
O        8.95910393       3.57272291      12.23008024        3      -0.00082108       0.00168900       0.30752072
C        5.93625197       5.31910524      10.00217001        2       0.00320357      -0.00198238       0.00368895
Ti       5.93774222       7.06755837      11.29739544        0       0.00038849      -0.00021619      -0.00204886
Ti       7.45305603       6.19301356       8.71388035        0      -0.00282681      -0.00217130       0.00285202
O        5.93896281       7.06860939       7.77508838        1      -0.00118875      -0.00341355       0.00465625
O        7.45313327       6.19345226      12.23008024        3       0.00079169       0.00094798       0.08259100
C        4.42317781       7.94054802      10.00306388        2       0.00058801      -0.00142330       0.00277824
Ti       4.42440036       9.69229236      11.30340466        0      -0.00077111       0.00083550      -0.00181153
Ti       5.93828255       8.81660346       8.71599791        0      -0.00201266       0.00093694       0.00369618
O        4.42291348       9.69405500       7.77903359        1       0.00354969      -0.00054875       0.00064343
O        5.93961512       8.81520574      12.23008024        3       0.00172770      -0.00529715       0.08910458
C        0.25220410      -0.05260739      16.56730694       10       0.00085525       0.00461919      -0.02399062
C        1.46134093       0.64924663      16.57569517       10       0.00493255      -0.00056862      -0.00587817
C       -0.94298574       2.03799429      16.54293627       10      -0.00266566       0.00223664       0.56281772
C        0.24933357       2.74688269      16.55057501       10      -0.00258017       0.00071999       0.03648860
C       -2.17950993       4.17410172      16.54293072       10      -0.00018952      -0.00537858       0.24779405
C       -0.96772235       4.85213603      16.55057245       10      -0.00178742      -0.00143876       0.02211161
C       -3.39052162       6.25628090      16.56730639       10      -0.00002043      -0.00649126      -0.00844942
C       -2.17774447       6.95232848      16.57569497       10       0.00237294      -0.00361763       0.00495149
C       -4.60168353       8.34875461      16.56541400       10      -0.00003685      -0.00041485      -0.00070371
C       -3.38982659       9.04827767      16.57670366       10       0.00666575      -0.00511418      -0.03493018
C        2.67169261      -0.04955476      16.57772868       10       0.00144718      -0.00121071      -0.00586430
C        3.88219342       0.65081557      16.57670357       10       0.00693447      -0.00163777      -0.03480956
C        1.46509206       2.04718049      16.56730715       10      -0.00509724       0.00307251      -0.02825610
C        2.67206779       2.74988442      16.55824702       10       0.00227482       0.00133820      -0.02864517
C        0.24572636       4.14924428      16.52444713       10      -0.00486631       0.00069587       0.14716129
C        1.45659561       4.84827105      16.53611708       10      -0.00179803       0.00207265      -0.06505312
C       -0.96557743       6.25499579      16.56730639       10      -0.00215475      -0.00546699      -0.01119093
C        0.24676761       6.94984720      16.55824712       10      -0.00272847       0.00119972      -0.02745893
C       -2.17780091       8.35059028      16.57772889       10       0.00124785      -0.00618504      -0.01988161
C       -0.96563850       9.04804424      16.57670366       10       0.00224853      -0.00222994      -0.03059864
C        5.09255613      -0.04970461      16.57772868       10       0.00469972      -0.00256748      -0.02322243
C        6.30365650       0.64904602      16.57569517       10       0.00009775       0.00644352       0.00968576
C        3.88245016       2.04991323      16.56541387       10      -0.00305623      -0.00049843      -0.01083171
C        5.09299593       2.74979763      16.55824702       10      -0.00191423       0.00201904      -0.02642091
C        2.67005294       4.14894036      16.54436352       10      -0.00332123       0.00534864      -0.03844070
C        3.88158449       4.84919503      16.54157566       10       0.00258047      -0.00259794      -0.01190879
C        1.45800930       6.24891975      16.54436342       10      -0.00143223       0.00178885      -0.04084858
C        2.66987310       6.94871590      16.54157555       10      -0.00004414      -0.00098055       0.00075979
C        0.24612676       8.34856440      16.56541400       10      -0.00001620      -0.00183723      -0.00752561
C        1.45788648       9.04688421      16.55824687       10      -0.00471872       0.00338708      -0.03295697
C        7.51361744      -0.05181649      16.56730694       10       0.00168135       0.00566226      -0.02377564
C        8.72725447       0.65133489      16.55057482       10      -0.00110344       0.00364479       0.03226649
C        6.30031088       2.04721870      16.56730715       10       0.00047202       0.00551761      -0.01904689
C        7.51529223       2.74791228      16.55057501       10      -0.00248879       0.00069634       0.02717620
C        5.09377723       4.14915384      16.54436352       10       0.00263623       0.00568883      -0.04100577
C        6.30669000       4.84926494      16.53611708       10       0.00401436      -0.00334374      -0.06410528
C        3.88183469       6.24894518      16.53849766       10       0.00339255       0.00137243      -0.03907207
C        5.09353765       6.94941632      16.54157555       10       0.00423350      -0.00296354      -0.01034173
C        2.67024186       8.34816160      16.54436325       10      -0.00388981       0.00006503      -0.03123980
C        3.88222379       9.04969032      16.53611667       10      -0.00609156       0.00026011      -0.07312731
C        9.94223761      -0.04829589      16.52444708       10      -0.00001298       0.00434380       0.15479472
C       11.15854128       0.65043255      16.55057482       10      -0.00220940       0.00260832       0.01997654
C        8.70883524       2.04039364      16.54293627       10       0.00047577       0.00248754       0.24504848
C        9.94043038       2.75252059      16.29857701       10      -0.00361396       0.00002350      -2.16591549
C        7.51766572       4.15026567      16.52444713       10       0.00328578       0.00083459       0.13202260
C        8.73084515       4.85390653      16.55057245       10       0.00149000      -0.00380679       0.02251958
C        6.30568618       6.24970426      16.54436342       10       0.00336982       0.00118972      -0.03101762
C        7.51713139       6.95036533      16.55824712       10       0.00624674      -0.00213898      -0.03316051
C        5.09443063       8.34890533      16.54436325       10      -0.00300999       0.00087408      -0.04499719
C        6.30699863       9.04695500      16.55824687       10      -0.00087598      -0.00134434      -0.03350175
O       10.02178942       2.67763439      14.74634692       11       0.00138559       0.00140070       0.00895922
H        9.34592372       3.21163156      14.27949292       12       0.00020723       0.00142061      -0.00061040
