132
Lattice="12.12 0.0 0.0 -6.06 10.496227893867395 0.0 0.0 0.0 40.0" Properties=species:S:1:pos:R:3:tags:I:1:forces:R:3 energy=-1208.9039105679053 stress="0.0027924154018540153 1.0653298598522823e-05 -9.409319967645824e-06 1.0653298598522823e-05 0.0027812166190892564 -6.732179877490668e-06 -9.409319967645824e-06 -6.732179877490668e-06 0.002867968417088588" pbc="T T F"
C       -0.13425951       0.12337297       9.95632033        2      -0.00161438      -0.00345249      -0.00147350
Ti      -0.16853946       1.88178722      11.32453499        0      -0.00196514      -0.00015234       0.00138976
Ti       1.37881882       1.00861402       8.69698922        0      -0.00311886      -0.00014570       0.00668564
O       -0.14246402       1.88630799       7.78077422        1      -0.00232689      -0.00182362      -0.00017390
O        1.38018290       1.00415512      12.23159545        3      -0.00191643      -0.00212499      -0.14131130
C       -1.65686656       2.75226526      10.01339454        2       0.00096883      -0.00140848      -0.00439298
Ti      -1.64050103       4.50041727      11.28693846        0      -0.00051773      -0.00465769      -0.00219356
Ti      -0.12751433       3.63328473       8.69942372        0      -0.00102352       0.00110382       0.00609850
O       -1.65308243       4.49813942       7.77654397        1      -0.00151340       0.00237593       0.00022219
O       -0.12756642       3.64365261      12.23159545        3       0.00172412      -0.00198124      -0.40303406
C       -3.17375738       5.39112423       9.95318584        2      -0.00354096      -0.00222176       0.00162699
Ti      -3.16947325       7.13222074      11.28992680        0      -0.00153057      -0.00130877      -0.00486677
Ti      -1.65389282       6.25799363       8.68820018        0      -0.00006974      -0.00141308       0.00126710
O       -3.16465291       7.13498915       7.76129553        1      -0.00217795      -0.00277321      -0.00324793
O       -1.65538911       6.25682829      12.23159545        3       0.00354012       0.00266607      -0.17423089
C       -4.68109120       8.00540606       9.96068902        2      -0.00225050      -0.00288599      -0.00467916
Ti      -4.68431194       9.75333851      11.30122404        0      -0.00328850       0.00157786      -0.00443320
Ti      -3.16353068       8.88353073       8.69179675        0       0.00073129       0.00100185       0.00267507
O       -4.67836723       9.75744535       7.76562154        1      -0.00345057      -0.00127629      -0.00119003
O       -3.16705646       8.88428739      12.23159545        3      -0.00569294      -0.00015964      -0.17032045
C        2.89305322       0.13633513       9.96643985        2      -0.00456126      -0.00035808       0.00219492
Ti       2.88830869       1.88257648      11.29746243        0      -0.00529801       0.00357230      -0.00212408
Ti       4.40320469       1.00786884       8.69570311        0      -0.00032302      -0.00310156       0.00255251
O        2.89280001       1.88335049       7.76754001        1       0.00032810      -0.00054514      -0.00036400
O        4.40598124       1.00902396      12.23159545        3      -0.00540836      -0.00007070      -0.19313439
C        1.37810915       2.76167306       9.96561441        2       0.00204731      -0.00200386      -0.00033661
Ti       1.39014575       4.50988292      11.28227986        0      -0.00093256      -0.00177741      -0.00302682
Ti       2.89159157       3.63074511       8.69269714        0      -0.00253744      -0.00333344       0.00368026
O        1.37521552       4.50720610       7.76652202        1      -0.00548801      -0.00473653       0.00108518
O        2.88945542       3.62866386      12.23159545        3       0.00391404      -0.00068254      -0.15153463
C       -0.13378702       5.38506759       9.96495108        2      -0.00145382      -0.00158430      -0.00044034
Ti      -0.14272058       7.13394475      11.29608658        0      -0.00301836       0.00090557      -0.00278561
Ti       1.37446144       6.25859385       8.69241807        0       0.00267344      -0.00261665       0.00474472
O       -0.13825946       7.13239402       7.76528580        1      -0.00190535      -0.00341487      -0.00263271
O        1.37427588       6.25602266      12.23159545        3      -0.00097133       0.00048467      -0.16147367
C       -1.65146456       8.00582802       9.96722964        2      -0.00107075       0.00021053      -0.00403348
Ti      -1.64969369       9.76019585      11.29192286        0       0.00074867      -0.00092530      -0.00464487
Ti      -0.13999549       8.87936768       8.69420277        0      -0.00179337      -0.00038265       0.00902874
O       -1.65018598       9.75751508       7.76670478        1       0.00072637       0.00047831       0.00074101
O       -0.13806535       8.88055543      12.23159545        3      -0.00281455       0.00236515      -0.15580055
C        5.92500697       0.13432265       9.97229840        2      -0.00176311       0.00024631      -0.00428166
Ti       5.92887691       1.88554141      11.29451470        0       0.00104456      -0.00181372       0.00068528
Ti       7.43113404       1.00747847       8.68695985        0       0.00088879       0.00068572       0.00426875
O        5.92174132       1.88181541       7.76892102        1       0.00043263       0.00070900      -0.00161694
O        7.43789699       1.00935001      12.23159545        3       0.00102889      -0.00246787      -0.18014751
C        4.40519949       2.75946606       9.96713445        2      -0.00064929       0.00018148      -0.00211131
Ti       4.40668038       4.50249721      11.29322025        0      -0.00415242      -0.00456331      -0.00221563
Ti       5.91632353       3.62728274       8.69668209        0       0.00199833      -0.00154149       0.00049735
O        4.40764324       4.50553941       7.76498146        1      -0.00072709      -0.00167446      -0.00033520
O        5.91735290       3.63166569      12.23159545        3       0.00138104       0.00229526      -0.18721170
C        2.89484649       5.38427845       9.96573215        2      -0.00005015      -0.00109291      -0.00115518
Ti       2.89054994       7.12741456      11.29722405        0      -0.00015100      -0.00041339      -0.00173326
Ti       4.40514795       6.25743857       8.67607220        0      -0.00076940      -0.00277743      -0.00033540
O        2.88976005       7.13196837       7.76297101        1       0.00200073      -0.00251358      -0.00110023
O        4.40536562       6.25673026      12.23159545        3      -0.00422409       0.00149538      -0.20203509
C        1.37617723       8.00438521       9.96495087        2       0.00069236      -0.00354526      -0.00074849
Ti       1.37951857       9.75358635      11.29554871        0      -0.00424250       0.00193217      -0.00136057
Ti       2.88918309       8.87881945       8.68992996        0       0.00044620      -0.00393127       0.00490891
O        1.37721685       9.75660288       7.76887265        1       0.00233479       0.00133924      -0.00136224
O        2.89093195       8.87108460      12.23159545        3      -0.00257096      -0.00619987      -0.21555975
C        8.95441269       0.12349407       9.97264893        2       0.00021014       0.00108363       0.00028446
Ti       8.98252379       1.85476345      11.29562172        0       0.00121574      -0.00281335       0.00466637
Ti      10.47551819       0.99597700       8.69463782        0      -0.00129035      -0.00440198       0.00799152
O        8.95699583       1.88458464       7.78013845        1      -0.00291925      -0.00394955       0.00058923
O       10.49618937       0.93013190      12.23159545        3       0.00052218       0.00070422      -0.82259278
C        7.43452228       2.75927838       9.96588463        2      -0.00251807       0.00211675      -0.00203617
Ti       7.40001532       4.53238285      11.26205438        0      -0.00048778      -0.00204772       0.00235541
Ti       8.94162204       3.63993653       8.68095609        0       0.00094733      -0.00151426       0.00022912
O        7.43488178       4.50577397       7.76627323        1       0.00093132      -0.00207962      -0.00178406
O        8.90146636       3.69878478      12.23159545        3      -0.00462074       0.00089956      -0.83469609
C        5.91112653       5.38904749       9.97273677        2       0.00456208      -0.00250334       0.00216269
Ti       5.92674795       7.13117821      11.28335585        0       0.00246151       0.00187172      -0.00243008
Ti       7.44277273       6.26587129       8.68525353        0      -0.00253813      -0.00023915       0.00093048
O        5.92151551       7.12948568       7.75934667        1      -0.00423724      -0.00150333      -0.00031318
O        7.43836002       6.26415015      12.23159545        3      -0.00131761      -0.00264702      -0.19259286
C        4.40784743       7.99553464       9.96607606        2      -0.00257834      -0.00305011       0.00047285
Ti       4.41533223       9.71936920      11.26435561        0      -0.00138632       0.00095587      -0.00218543
Ti       5.93018671       8.88154059       8.68437278        0      -0.00189539      -0.00011607       0.00296582
O        4.40540953       9.75348607       7.76371596        1      -0.00460665       0.00153084       0.00106713
O        5.93239864       8.87506246      12.23159545        3       0.00173062      -0.00380295      -0.18076895
C        0.28187970      -0.15775527      15.57408531       10       0.00679419       0.00509697       0.09498566
C        1.48811398       0.54519636      15.58247354       10      -0.00261061       0.00169841       0.08585919
C       -0.90605379       1.92864023      15.54971464       10       0.00379996      -0.00007157       0.67492695
C        0.28040971       2.64202331      15.55735338       10      -0.00018797       0.00252923       0.11153794
C       -2.15301102       4.08649056      15.54970909       10       0.00500422      -0.00111742       0.48040619
C       -0.94041822       4.75643670      15.55735082       10       0.00064923       0.00358515       0.10520965
C       -3.36609305       6.16183285      15.57408476       10       0.00213427       0.00102179       0.06624212
C       -2.15286885       6.85300998      15.58247334       10      -0.00089650       0.00171543       0.07141915
C       -4.57554063       8.24789599      15.57219237       10       0.00563816       0.00365357       0.10108308
C       -3.36407846       8.94670927      15.58348203       10      -0.00420048      -0.00117980       0.06829307
C        2.69819307      -0.15346529      15.58450705       10       0.00053595       0.00497091       0.10067432
C        3.90612795       0.54688671      15.58348194       10       0.00208921       0.00133665       0.05342557
C        1.49477742       1.94231015      15.57408552       10      -0.00062022       0.00258608       0.09816468
C        2.69858134       2.64657727      15.56502539       10      -0.00094277      -0.00030258       0.05992845
C        0.27582251       4.04885805      15.53122550       10       0.00140658       0.00355885       0.07544563
C        1.48315904       4.74729264      15.54289545       10       0.00088161       0.00276197       0.04138878
C       -0.94036713       6.15999485      15.57408476       10       0.00063397       0.00558860       0.09217321
C        0.27185105       6.85083180      15.56502549       10       0.00083237       0.00318220       0.06045257
C       -2.15311262       8.25027727      15.58450726       10      -0.00105054       0.00297742       0.08291937
C       -0.94299777       8.94660672      15.58348203       10       0.00092762       0.00006751       0.05949698
C        5.11461265      -0.15327622      15.58450705       10       0.00236458       0.00394068       0.04782273
C        6.32620673       0.54608077      15.58247354       10       0.00420760       0.00208701       0.05194571
C        3.90653786       1.94625604      15.57219224       10      -0.00096173      -0.00019928       0.05419782
C        5.11431649       2.64848338      15.56502539       10       0.00109194      -0.00168956       0.05212995
C        2.69661380       4.04646007      15.55114189       10       0.00065362      -0.00000107       0.08584377
C        3.90688167       4.74896468      15.54835403       10       0.00187761       0.00034078       0.05009339
C        1.48227834       6.14866988      15.55114179       10       0.00124863       0.00336431       0.08596131
C        2.69566567       6.84731776      15.54835392       10       0.00298505       0.00076252       0.05872465
C        0.26942532       8.24820853      15.57219237       10       0.00067384       0.00219469       0.06678503
C        1.48108272       8.94491682      15.56502524       10       0.00225145      -0.00128756       0.03625902
C        7.53398724      -0.15543604      15.57408531       10       0.00255018       0.00205951       0.01720652
C        8.75040953       0.54795171      15.55735319       10       0.00367126      -0.00037959       0.13086078
C        6.31944674       1.94352105      15.57408552       10       0.00435795       0.00173400       0.01902022
C        7.53599082       2.64526736      15.55735338       10       0.00621311      -0.00147447       0.13357306
C        5.11734527       4.04771411      15.55114189       10       0.00235952      -0.00094967       0.03556684
C        6.33028097       4.74999368      15.54289545       10       0.00254007       0.00092809       0.03032927
C        3.90770061       6.14824901      15.54527603       10       0.00367322       0.00153332       0.06036829
C        5.11925522       6.84839258      15.54835392       10       0.00283988       0.00184290       0.05596305
C        2.69421733       8.24730915      15.55114162       10       0.00098947      -0.00027328       0.07237842
C        3.90837520       8.94765942      15.54289504       10       0.00062808      -0.00121744       0.03128668
C        9.96848711      -0.15355865      15.53122545       10       0.00496494       0.00395395       0.04701381
C       11.18887921       0.54573999      15.55735319       10      -0.00555930      -0.00017937       0.09184691
C        8.72543754       1.93462462      15.54971464       10       0.00619493       0.00086060       0.31875535
C        9.96878005       2.65250955      15.30535538       10       0.00365000      -0.00014579      -0.32374656
C        7.53855038       4.05219695      15.53122550       10       0.00386763       0.00018808      -0.00645391
C        8.75507948       4.75997252      15.55735082       10      -0.00035617       0.00265534       0.16410459
C        6.33171284       6.15073871      15.55114179       10       0.00331612       0.00295884       0.07758619
C        7.54127156       6.85235109      15.56502549       10      -0.00134995       0.00635188       0.05869334
C        5.12114654       8.24723908      15.55114162       10       0.00285159       0.00332936       0.10414550
C        6.33471391       8.94408116      15.56502524       10      -0.00698249       0.00040907       0.07186109
O       10.04311243       2.63546033      13.87880929       11       0.00116432       0.00057295      -0.00005124
H        9.36231070       3.27977471      13.44003456       12       0.00224337       0.00380203      -0.00158285
