130
Lattice="12.12 0.0 0.0 -6.06 10.496227893867395 0.0 0.0 0.0 40.0" Properties=species:S:1:pos:R:3:tags:I:1:forces:R:3 energy=-1200.7366180305823 stress="0.002827781795461344 -3.3043402277576584e-08 3.586571081179186e-07 -3.3043402277576584e-08 0.0028277311506516474 5.53289964863533e-07 3.586571081179186e-07 5.53289964863533e-07 0.002191850619890012" pbc="T T F"
C       -0.00005754      -0.00009103      10.00073421        2       0.00019484       0.00014411       0.00133293
Ti       0.00002022       1.74931375      11.30451654        0       0.00019510       0.00012599      -0.00209959
Ti       1.51510427       0.87474066       8.69048909        0       0.00019123       0.00002963      -0.00078054
O        0.00003751       1.74941595       7.76750651        1      -0.00004245      -0.00008551      -0.00213619
O        1.51613858       0.87514182      12.23159545        3      -0.00018757       0.00031332      -0.05204649
C       -1.51529260       2.62446050      10.00014846        2       0.00010100       0.00016910       0.00114281
Ti      -1.51499680       4.37337991      11.30406769        0       0.00025905       0.00020495      -0.00282319
Ti      -0.00000323       3.49890490       8.69030077        0      -0.00008708       0.00001836      -0.00103879
O       -1.51499048       4.37348726       7.76747666        1      -0.00006093      -0.00001268      -0.00252179
O       -0.00022256       3.49855119      12.23159545        3       0.00026895       0.00014928      -0.04610885
C       -3.03020331       5.24807516      10.00022403        2       0.00036735       0.00020841       0.00082038
Ti      -3.03003717       6.99754703      11.30408057        0       0.00024471       0.00016141      -0.00319211
Ti      -1.51498139       6.12281163       8.69003106        0      -0.00008975       0.00004293      -0.00091683
O       -3.02996127       6.99743854       7.76743954        1      -0.00008051       0.00002054      -0.00257020
O       -1.51578659       6.12226866      12.23159545        3       0.00056917       0.00028372      -0.03251632
C       -4.54478879       7.87170981      10.00004935        2       0.00002804       0.00015614       0.00098559
Ti      -4.54496659       9.62151018      11.30428997        0      -0.00019051       0.00034674      -0.00239439
Ti      -3.02987851       8.74677171       8.69015361        0      -0.00004002      -0.00003183      -0.00071904
O       -4.54496908       9.62156947       7.76747493        1      -0.00002691       0.00005754      -0.00228391
O       -3.03046017       8.74677442      12.23159545        3      -0.00006473       0.00003391      -0.04212066
C        3.03054018      -0.00006789      10.00017735        2      -0.00006114       0.00014003       0.00098427
Ti       3.03030663       1.74962278      11.30443867        0       0.00036474       0.00062858      -0.00270803
Ti       4.54510306       0.87472454       8.69020065        0       0.00014234      -0.00005979      -0.00102048
O        3.02996494       1.74938553       7.76758972        1       0.00006102      -0.00000145      -0.00249867
O        4.54500588       0.87468566      12.23159545        3      -0.00003959      -0.00001881      -0.01390707
C        1.51523186       2.62450949      10.00029737        2       0.00010435       0.00016873       0.00084041
Ti       1.51492936       4.37328952      11.30412735        0       0.00000671       0.00006612      -0.00255200
Ti       3.03008879       3.49883871       8.69031497        0       0.00007046       0.00010689      -0.00131969
O        1.51501383       4.37349908       7.76751198        1      -0.00004550       0.00001980      -0.00262120
O        3.02988194       3.49914005      12.23159545        3       0.00000031       0.00014095      -0.01446550
C       -0.00000314       5.24866939      10.00042895        2       0.00019531      -0.00016350       0.00092709
Ti      -0.00002552       6.99755068      11.30469859        0       0.00034751       0.00019175      -0.00194229
Ti       1.51502205       6.12281570       8.69007442        0      -0.00001479       0.00005928      -0.00142209
O        0.00001131       6.99747961       7.76731964        1       0.00001675       0.00003380      -0.00253191
O        1.51584746       6.12206080      12.23159545        3      -0.00013222       0.00025090      -0.03716728
C       -1.51458733       7.87200934      10.00047590        2       0.00002790       0.00015251       0.00080786
Ti      -1.51524705       9.62164867      11.30410271        0      -0.00016914       0.00018949      -0.00280186
Ti       0.00002291       8.74686131       8.68995444        0      -0.00003902       0.00011434      -0.00115377
O       -1.51493073       9.62152312       7.76739924        1      -0.00005841       0.00006489      -0.00258225
O       -0.00020278       8.74821633      12.23159545        3       0.00030851      -0.00012638      -0.03839569
C        6.06009741      -0.00004322      10.00015252        2       0.00002893      -0.00005735       0.00086067
Ti       6.06006721       1.74912850      11.30493307        0       0.00015214      -0.00022663      -0.00265716
Ti       7.57492314       0.87468565       8.69017218        0       0.00000254      -0.00008152      -0.00086584
O        6.06001414       1.74943449       7.76754812        1       0.00006157       0.00008781      -0.00250218
O        7.57554994       0.87463904      12.23159545        3      -0.00003592      -0.00003887      -0.01394851
C        4.54536891       2.62430174      10.00030782        2      -0.00029497      -0.00000964       0.00093710
Ti       4.54492152       4.37358259      11.30508705        0       0.00009118       0.00013435      -0.00208235
Ti       6.05998532       3.49875102       8.69019180        0       0.00006580      -0.00005563      -0.00108093
O        4.54502993       4.37343427       7.76759101        1       0.00014880       0.00003904      -0.00247997
O        6.05936643       3.49785239      12.23159545        3       0.00020635      -0.00015355       0.02160872
C        3.03009985       5.24824594      10.00021508        2      -0.00006746       0.00007909       0.00084174
Ti       3.03013627       6.99764731      11.30412602        0      -0.00005992       0.00004779      -0.00292457
Ti       4.54495124       6.12273776       8.69026296        0      -0.00008365       0.00013086      -0.00109028
O        3.02998011       6.99743710       7.76745577        1       0.00001756       0.00008296      -0.00266634
O        4.54496873       6.12353027      12.23159545        3      -0.00016640       0.00002502      -0.01264991
C        1.51466174       7.87205142      10.00062037        2       0.00024736       0.00013132       0.00091601
Ti       1.51524223       9.62167359      11.30406611        0       0.00031518      -0.00001548      -0.00268246
Ti       3.02989278       8.74678377       8.69016990        0       0.00013292       0.00011742      -0.00099969
O        1.51496160       9.62152665       7.76737919        1       0.00005254       0.00007742      -0.00260630
O        3.03063313       8.74709432      12.23159545        3       0.00001105      -0.00002626      -0.04380918
C        9.08951430      -0.00004085      10.00006788        2       0.00009854       0.00010350       0.00094822
Ti       9.08991191       1.74960966      11.30456119        0      -0.00006361       0.00044795      -0.00290391
Ti      10.60488362       0.87472561       8.69038629        0      -0.00025074       0.00012698      -0.00065366
O        9.09000344       1.74936940       7.76754910        1       0.00004710       0.00009218      -0.00238197
O       10.60401512       0.87505469      12.23159545        3       0.00024609       0.00019261      -0.04827234
C        7.57474380       2.62434027      10.00050309        2       0.00006934      -0.00007411       0.00095096
Ti       7.57494199       4.37341945      11.30531210        0      -0.00026658       0.00001490      -0.00207800
Ti       9.08992508       3.49881776       8.69021604        0      -0.00001259       0.00019923      -0.00077448
O        7.57495628       4.37340844       7.76752699        1      -0.00002428       0.00004819      -0.00232139
O        9.09052580       3.49906188      12.23159545        3      -0.00007812       0.00032327      -0.01251562
C        6.06008970       5.24778494      10.00065903        2      -0.00015880       0.00016285       0.00117734
Ti       6.06011666       6.99741261      11.30472223        0      -0.00002315      -0.00024350      -0.00279276
Ti       7.57501961       6.12271456       8.69018330        0       0.00024105       0.00001498      -0.00067051
O        6.05997151       6.99746563       7.76757902        1       0.00014335      -0.00005211      -0.00237206
O        7.57546521       6.12347043      12.23159545        3       0.00015460      -0.00013287      -0.01073712
C        4.54477413       7.87177258      10.00008172        2       0.00008451       0.00006769       0.00064725
Ti       4.54504787       9.62152717      11.30417617        0       0.00006316       0.00023622      -0.00268024
Ti       6.05997943       8.74671921       8.69034578        0       0.00005978      -0.00027001      -0.00070361
O        4.54495833       9.62152114       7.76744516        1       0.00019889       0.00019089      -0.00230110
O        6.05995916       8.74589264      12.23159545        3       0.00004072       0.00013416      -0.04285792
C        0.04475443       0.06737640      16.73685861       10       0.00381174       0.00043143       0.00790128
C        1.25713659       0.76728682      16.73685861       10       0.00312168       0.00220519       0.02061298
C       -1.16719417       2.16670145      16.73685861       10       0.00008119      -0.00012334       0.01433986
C        0.04507609       2.86709214      16.73685861       10      -0.00205235       0.00079615       0.00210165
C       -2.37932166       4.26566111      16.73685861       10       0.00112031      -0.00132050       0.00608552
C       -1.16743490       4.96578519      16.73685861       10       0.00076384       0.00096004       0.00566168
C       -3.59150216       6.36519489      16.73685861       10       0.00302558      -0.00089720       0.00582270
C       -2.37924228       7.06472016      16.73685861       10       0.00148022      -0.00108298       0.00614660
C       -4.80308600       8.46430225      16.73685861       10      -0.00082291      -0.00113784       0.01416003
C       -3.59048277       9.16391277      16.73685861       10      -0.00036170      -0.00099766       0.00191660
C        2.46885675       0.06771385      16.73685861       10       0.00328233       0.00168934       0.01547255
C        3.68132844       0.76749270      16.73685861       10       0.00270139       0.00050118       0.00812543
C        1.25731382       2.16658855      16.73685861       10      -0.00109603       0.00199539       0.01487953
C        2.46954111       2.86675970      16.73685861       10      -0.00093256      -0.00044118       0.00945758
C        0.04499288       4.26550228      16.73685861       10      -0.00025003       0.00078390       0.01237954
C        1.25733476       4.96587801      16.73685861       10       0.00000387      -0.00028457       0.00410249
C       -1.16758844       6.36488391      16.73685861       10       0.00090959       0.00167156       0.01172503
C        0.04484416       7.06498013      16.73685861       10       0.00029480      -0.00129667      -0.01342170
C       -2.37942264       8.46478128      16.73685861       10      -0.00032931      -0.00089394       0.01032049
C       -1.16672215       9.16452510      16.73685861       10      -0.00063823      -0.00189036       0.00300914
C        4.89269117       0.06801559      16.73685861       10       0.00159461       0.00079238       0.00472533
C        6.10489727       0.76747354      16.73685861       10       0.00130398       0.00135646       0.02144572
C        3.68120004       2.16686561      16.73685861       10      -0.00143251      -0.00065724       0.01785609
C        4.89322359       2.86659914      16.73685861       10      -0.00080794      -0.00121546       0.02269044
C        2.46932870       4.26562402      16.73685861       10      -0.00017281      -0.00064173       0.00562591
C        3.68121429       4.96568735      16.73685861       10      -0.00007904       0.00029078       0.02048836
C        1.25721628       6.36495168      16.73685861       10       0.00066296       0.00078114       0.01667508
C        2.46902487       7.06474407      16.73685861       10       0.00109022       0.00038886       0.00366547
C        0.04500291       8.46487071      16.73685861       10      -0.00150452      -0.00165149       0.01953081
C        1.25690816       9.16446633      16.73685861       10      -0.00182952      -0.00096806       0.00209758
C        7.31697347       0.06792823      16.73685861       10       0.00047563       0.00170325       0.00390633
C        8.52838400       0.76744674      16.73685861       10       0.00037308       0.00054745       0.00914219
C        6.10499698       2.16683616      16.73685861       10      -0.00033671       0.00101026       0.00513105
C        7.31688722       2.86657447      16.73685861       10      -0.00089435      -0.00193488       0.02132716
C        4.89306590       4.26593041      16.73685861       10      -0.00027909      -0.00011124       0.00344473
C        6.10493955       4.96572629      16.73685861       10      -0.00007889      -0.00100082       0.02046139
C        3.68128120       6.36511605      16.73685861       10       0.00056635       0.00016563       0.00489777
C        4.89284385       7.06461421      16.73685861       10       0.00070213      -0.00219356       0.01131726
C        2.46968257       8.46482291      16.73685861       10      -0.00302198      -0.00074303       0.00944176
C        3.68076585       9.16405220      16.73685861       10      -0.00343292      -0.00201820       0.00302927
C        9.74086040       0.06783275      16.73685861       10       0.00043050       0.00067987       0.01433095
C       10.95237367       0.76740288      16.73685861       10       0.00075111       0.00095587       0.01763236
C        8.52893851       2.16683414      16.73685861       10      -0.00138966       0.00082504       0.01435047
C        9.74066971       2.86666941      16.73685861       10      -0.00305815       0.00074036       0.01275431
C        7.31694157       4.26600056      16.73685861       10      -0.00095361      -0.00112496       0.00113250
C        8.52881921       4.96567364      16.73685861       10      -0.00124766       0.00119065       0.01954806
C        6.10489687       6.36521023      16.73685861       10       0.00174574      -0.00094277       0.01166856
C        7.31693996       7.06457710      16.73685861       10      -0.00018889      -0.00007089       0.01332743
C        4.89340942       8.46436482      16.73685861       10      -0.00325247      -0.00241616       0.01349799
C        6.10510827       9.16359433      16.73685861       10      -0.00387890      -0.00057076       0.01475031
