131
Lattice="12.12 0.0 0.0 -6.06 10.496227893867395 0.0 0.0 0.0 40.0" Properties=species:S:1:pos:R:3:tags:I:1:forces:R:3 energy=-1204.816679616203 stress="0.002892077222653587 4.0850831810081893e-07 3.0238140978186984e-06 4.0850831810081893e-07 0.002892480338346716 -8.649059343183035e-07 3.0238140978186984e-06 -8.649059343183035e-07 0.0021537968760886586" pbc="T T F"
C       -0.00079980       0.00057438      10.00396506        2       0.00055714      -0.00019134      -0.00078826
Ti      -0.00022707       1.74942948      11.29223558        0       0.00027262      -0.00046376      -0.00036857
Ti       1.51501344       0.87439845       8.71520453        0       0.00061395      -0.00037070      -0.00005924
O        0.00168967       1.74871294       7.77322155        1      -0.00046412       0.00030966       0.00034839
O        1.51296596       0.87830772      12.23008024        3       0.00039442      -0.00016144       0.12347662
C       -1.51479027       2.62335972      10.00166483        2       0.00011185      -0.00021715       0.00052502
Ti      -1.51447166       4.37101809      11.29075602        0       0.00026389       0.00018788       0.00019594
Ti       0.00031372       3.49889157       8.71174343        0       0.00008270      -0.00019343       0.00032649
O       -1.51516631       4.37578147       7.77448394        1       0.00051586      -0.00136458       0.00012631
O        0.00106535       3.49822822      12.23008024        3       0.00032802      -0.00017699       0.12729070
C       -3.02976178       5.24753391      10.00691173        2       0.00057557       0.00036961      -0.00126853
Ti      -3.02778189       6.99913267      11.31635299        0       0.00045235       0.00078760      -0.00015134
Ti      -1.51532358       6.12274636       8.71820010        0       0.00036248       0.00010135      -0.00123701
O       -3.02935621       6.99959666       7.78152382        1       0.00016548      -0.00111024      -0.00340893
O       -1.51118906       6.11738668      12.23008024        3       0.00031754      -0.00001786       0.10356525
C       -4.54475804       7.87202921      10.01103214        2       0.00084709      -0.00001900      -0.00268083
Ti      -4.54392928       9.62126842      11.30313645        0       0.00125345      -0.00072074       0.00031986
Ti      -3.02964207       8.74683674       8.72403937        0       0.00036866      -0.00009994      -0.00516245
O       -4.54219459       9.62009353       7.77926858        1      -0.00075835       0.00046402      -0.00227637
O       -3.03263870       8.74814874      12.23008024        3       0.00007762      -0.00005188       0.09933648
C        3.03041951       0.00010464      10.01146972        2       0.00052342      -0.00054027      -0.00290438
Ti       3.02993101       1.74934243      11.29470966        0       0.00044838      -0.00065673       0.00001172
Ti       4.54534465       0.87385275       8.71812175        0       0.00039990      -0.00020481      -0.00167091
O        3.03078820       1.74759401       7.77599462        1       0.00010709       0.00075096      -0.00076724
O        4.54660985       0.88106881      12.23008024        3       0.00023278       0.00003464       0.12603601
C        1.51510221       2.62427542      10.00291671        2       0.00026249      -0.00048119      -0.00024016
Ti       1.51485423       4.37323259      11.29267566        0       0.00035289      -0.00008000      -0.00037343
Ti       3.03020940       3.49830373       8.71268692        0       0.00032185      -0.00006441      -0.00022926
O        1.51526437       4.37367161       7.77291294        1       0.00020772      -0.00014535       0.00039558
O        3.02999863       3.50056828      12.23008024        3       0.00026169      -0.00024450       0.11768118
C        0.00063846       5.24753999      10.00397768        2      -0.00010663      -0.00000710      -0.00049297
Ti      -0.00044985       6.99759280      11.30046781        0      -0.00034443       0.00027328       0.00055002
Ti       1.51464222       6.12311750       8.71331126        0       0.00037873      -0.00007085       0.00018649
O       -0.00168240       6.99866216       7.77788803        1       0.00134910      -0.00070035      -0.00104916
O        1.51808457       6.12110759      12.23008024        3       0.00006608       0.00002745       0.11691351
C       -1.51483461       7.87223149      10.01452976        2      -0.00013003       0.00013118      -0.00329730
Ti      -1.51546521       9.61891516      11.31941886        0      -0.00045589      -0.00068008      -0.00050539
Ti      -0.00007401       8.74730205       8.71885583        0       0.00021288      -0.00017368      -0.00144863
O       -1.51625790       9.62020546       7.78203060        1       0.00108692       0.00047590      -0.00376527
O        0.00728120       8.74619187      12.23008024        3       0.00000770      -0.00025005       0.09885020
C        6.06070209       0.00016931      10.00770355        2      -0.00023221      -0.00050170      -0.00143879
Ti       6.06162582       1.74920839      11.29294090        0      -0.00004099      -0.00046924      -0.00014691
Ti       7.57506461       0.87474012       8.71261960        0       0.00002544      -0.00038447       0.00026156
O        6.05873858       1.74827898       7.77484560        1       0.00129829       0.00043446      -0.00008306
O        7.57736434       0.87533464      12.23008024        3      -0.00020116      -0.00025856       0.12015312
C        4.54530627       2.62427702      10.00384319        2       0.00043354      -0.00039792      -0.00056020
Ti       4.54543521       4.37336053      11.29324430        0       0.00040254      -0.00002982      -0.00025235
Ti       6.06011043       3.49871655       8.71274667        0       0.00074146      -0.00028343       0.00023598
O        4.54531922       4.37326860       7.77301217        1       0.00040819       0.00001621       0.00013116
O        6.06001501       3.49936092      12.23008024        3       0.00067622      -0.00025461       0.11202795
C        3.03021193       5.24810781      10.00250003        2       0.00036013      -0.00008983       0.00003788
Ti       3.03026717       6.99783264      11.29264594        0       0.00025330      -0.00009605      -0.00031110
Ti       4.54553707       6.12292388       8.71262742        0       0.00033425       0.00003320      -0.00032977
O        3.02996472       6.99732197       7.77294151        1       0.00040945       0.00018663       0.00048608
O        4.54416192       6.12214808      12.23008024        3       0.00047519       0.00007368       0.11256205
C        1.51591032       7.87194229      10.00414502        2      -0.00009985       0.00017615      -0.00055462
Ti       1.51702009       9.62224914      11.29172420        0      -0.00039901      -0.00033154       0.00043956
Ti       3.03008427       8.74667832       8.71194366        0       0.00026691       0.00034890       0.00060458
O        1.51290787       9.62065849       7.77485065        1       0.00156784       0.00037435       0.00029286
O        3.03110226       8.74608944      12.23008024        3       0.00001506      -0.00004964       0.11958811
C        9.09096439       0.00033846      10.00181430        2       0.00023614       0.00019869       0.00058494
Ti       9.09059479       1.74917730      11.29221922        0       0.00037714      -0.00031193      -0.00032213
Ti      10.60519654       0.87461502       8.71179679        0       0.00060487      -0.00013511      -0.00142793
O        9.08952437       1.74960154       7.77239393        1       0.00057280      -0.00022900       0.00058646
O       10.60542412       0.87477235      12.23008024        3       0.00068846      -0.00038724       0.11306117
C        7.57555474       2.62390031      10.00253853        2       0.00068441      -0.00035724       0.00027272
Ti       7.57603453       4.37252735      11.29288210        0       0.00062782       0.00016231      -0.00020718
Ti       9.08995302       3.49882573       8.71237262        0       0.00049806       0.00023312      -0.00020284
O        7.57525367       4.37508261       7.77453967        1       0.00041543      -0.00104248      -0.00001425
O        9.09036260       3.49711712      12.23008024        3       0.00020587       0.00022709       0.11127874
C        6.06006495       5.24801760      10.00359346        2       0.00069912       0.00004144      -0.00045839
Ti       6.06012165       6.99789578      11.29442456        0       0.00080979       0.00007315      -0.00013795
Ti       7.57588499       6.12307417       8.71751924        0       0.00050763      -0.00006283      -0.00117607
O        6.06183844       6.99791206       7.77569006        1      -0.00031937      -0.00021860      -0.00054339
O        7.57062821       6.11866889      12.23008024        3       0.00023550      -0.00020412       0.12359776
C        4.54504859       7.87217250      10.00297911        2       0.00060020       0.00024365      -0.00010125
Ti       4.54505090       9.62199639      11.29221963        0       0.00050470       0.00006764      -0.00040264
Ti       6.06041814       8.74712779       8.71515596        0       0.00065708      -0.00000377      -0.00008438
O        4.54639520       9.62052068       7.77323668        1      -0.00037476       0.00036253       0.00047552
O        6.05656285       8.74728041      12.23008024        3       0.00049198       0.00008576       0.13344174
C        0.04109535       0.06969005      17.24717898       10       0.00551812       0.00084831      -0.00688534
C        1.25158625       0.76915266      17.23188693       10      -0.00064528      -0.00158813       0.00961019
C       -1.16872956       2.16794941      17.25249968       10      -0.00178985       0.00152904      -0.03187623
C        0.04310662       2.86772643      17.23478925       10      -0.00133895       0.00112216      -0.01246270
C       -2.38072709       4.26527326      17.24717898       10      -0.00440480       0.00127086      -0.00336005
C       -1.16981325       4.96406078      17.23188693       10      -0.00133371       0.00091395       0.01382544
C       -3.58780732       6.36799743      17.18406823       10      -0.00335099       0.00112191      -0.02552862
C       -2.38091413       7.05042066      17.14224601       10       0.00023756      -0.00056331      -0.47061617
C       -4.80177133       8.46932966      17.18406823       10       0.00274734      -0.00031818      -0.02431304
C       -3.60765703       9.17381323      17.14224601       10      -0.00132067      -0.00167676      -0.45072485
C        2.46524537       0.06397858      17.18406823       10       0.00237951      -0.00232783      -0.02784657
C        3.67876490       0.76650095      17.15198955       10       0.00311377       0.00212002       0.16970271
C        1.25449814       2.16729660      17.22084396       10       0.00039237      -0.00073257      -0.03580144
C        2.46675768       2.86633040      17.19892955       10      -0.00056445       0.00086907      -0.04482194
C        0.04238671       4.26718288      17.22084396       10      -0.00006097      -0.00086500      -0.03421866
C        1.25405808       4.96702274      17.19892955       10      -0.00255380       0.00052590      -0.05102075
C       -1.17390482       6.36801315      17.18406823       10       0.00061787       0.00158618      -0.03503084
C        0.04161730       7.06698174      17.15198955       10      -0.00073973      -0.00123396       0.16941430
C       -2.38170659       8.46622811      16.68944035       10       0.00111908      -0.00203083       0.19800546
C       -1.15526017       9.17320870      17.14224601       10       0.00030518       0.00228704      -0.47237400
C        4.89207224       0.06345244      17.18406823       10      -0.00054857      -0.00313594      -0.02261864
C        6.10605069       0.76867475      17.23188693       10       0.00036552       0.00184666       0.01823656
C        3.67918551       2.16381880      17.18432326       10      -0.00238378       0.00173042      -0.09403520
C        4.89171293       2.86624621      17.19892955       10      -0.00146027       0.00060190      -0.04724663
C        2.46653435       4.26656399      17.19624794       10      -0.00242728       0.00019022      -0.00730909
C        3.67937012       4.96667384      17.19124717       10      -0.00139753       0.00148408      -0.04656276
C        1.25173594       6.36829424      17.18432326       10       0.00007281      -0.00012341      -0.10020782
C        2.46638259       7.06697637      17.19892955       10       0.00036644       0.00131679      -0.05143291
C        0.03918530       8.46913522      17.18406823       10      -0.00088661      -0.00176292      -0.03768728
C        1.25706194       9.16750116      17.23188693       10      -0.00058044       0.00425898       0.01395361
C        7.31667625       0.06940167      17.24717898       10      -0.00169213      -0.00172730      -0.00195794
C        8.52812272       0.76885929      17.25411750       10      -0.00053085       0.00110665      -0.01697521
C        6.10375792       2.16690030      17.22084396       10      -0.00155824       0.00315868      -0.02886928
C        7.31536117       2.86747095      17.23478925       10      -0.00249549      -0.00082058      -0.00583268
C        4.89215032       4.26649343      17.19624794       10      -0.00128859       0.00138062      -0.01011611
C        6.10457854       4.96699323      17.19892955       10      -0.00250497       0.00116003      -0.04826359
C        3.67922823       6.36711122      17.19624794       10      -0.00198198      -0.00027372      -0.00871195
C        4.89199232       7.06702098      17.19892955       10      -0.00107501       0.00134568      -0.04699832
C        2.46672028       8.46627430      17.22084396       10      -0.00302259      -0.00142913      -0.03619419
C        3.67901172       9.16534966      17.23478925       10      -0.00028415       0.00263535      -0.01081484
C        9.73905112       0.06849514      17.25249968       10       0.00166145      -0.00023007      -0.02980989
C       10.94992069       0.76909574      17.25411750       10      -0.00115444      -0.00182022      -0.02403412
C        8.52719885       2.16775404      17.25249968       10      -0.00313848       0.00234339      -0.03005111
C        9.73913415       2.86638760      17.25411750       10       0.00217685      -0.00120559      -0.01914112
C        7.31622128       4.26699727      17.22084396       10      -0.00261221       0.00030741      -0.03065365
C        8.52828031       4.96403846      17.23188693       10       0.00216713      -0.00061145       0.01529155
C        6.10659082       6.36828935      17.18432326       10      -0.00163493      -0.00235034      -0.09429438
C        7.31656566       7.06714275      17.15198955       10       0.00005845      -0.00219600       0.16847830
C        4.89129833       8.46638671      17.22084396       10       0.00118031      -0.00057747      -0.03449742
C        6.10075650       9.16792106      17.23188693       10      -0.00277048      -0.00244633       0.01294426
O       -2.38988217       8.47259586      15.33499072       11       0.00411414       0.00129073      -0.00161988
