131
Lattice="12.12 0.0 0.0 -6.06 10.496227893867395 0.0 0.0 0.0 40.0" Properties=species:S:1:pos:R:3:tags:I:1:forces:R:3 energy=-1205.1871694053518 stress="0.002811484790799454 -4.5230296556948127e-07 1.9531407888701507e-06 -4.5230296556948127e-07 0.0028151575417849598 4.351867617051944e-06 1.9531407888701507e-06 4.351867617051944e-06 0.0025840342668322167" pbc="T T F"
C       -0.36509048       0.16106189       9.99656820        2       0.00240928      -0.00062475       0.00093509
Ti      -0.36100174       1.90880088      11.31345641        0       0.00164539      -0.00440982       0.00137814
Ti       1.15656054       1.03343033       8.70367053        0       0.00206194      -0.00021816       0.00155845
O       -0.35626577       1.90983920       7.77255555        1      -0.00289942       0.00012506      -0.00090528
O        1.14841398       1.03638094      12.23159545        3      -0.00097753       0.00020257      -0.00480832
C       -1.87477596       2.77908371       9.99650680        2      -0.00035246      -0.00023126       0.00102717
Ti      -1.87409763       4.52480066      11.31107318        0      -0.00276303      -0.00028008       0.00088912
Ti      -0.35939285       3.65915262       8.70196218        0       0.00024525       0.00037115       0.00543928
O       -1.87465208       4.53635758       7.77943754        1      -0.00017386       0.00061679      -0.00061951
O       -0.36191383       3.65216818      12.23159545        3      -0.00117641       0.00280209      -0.00592456
C       -3.38941401       5.40618132      10.00417183        2       0.00068265      -0.00229105      -0.00114839
Ti      -3.37787336       7.16613767      11.34363390        0       0.00317367       0.00027993       0.00063565
Ti      -1.87516197       6.28035855       8.71285875        0       0.00220848       0.00129833       0.00294766
O       -3.38792224       7.15832342       7.78844037        1       0.00111361      -0.00027955      -0.00035696
O       -1.87488885       6.26514339      12.23159545        3      -0.00042837       0.00012888      -0.10891013
C       -4.90707379       8.03197072      10.00407307        2       0.00009292       0.00239313       0.00078721
Ti      -4.91486318       9.78688154      11.30810297        0      -0.00121957       0.00122412      -0.00117433
Ti      -3.39231160       8.90675287       8.71418777        0       0.00127836      -0.00002025       0.00220914
O       -4.90181153       9.77882866       7.78047927        1      -0.00030471       0.00054425      -0.00409723
O       -3.41122497       8.91522701      12.23159545        3       0.00030220       0.00094452      -0.16716049
C        2.66845852       0.15979561      10.00673853        2      -0.00231956       0.00047773      -0.00008675
Ti       2.66844428       1.90312283      11.32530464        0       0.00232109       0.00436845       0.00024679
Ti       4.18506948       1.03298554       8.70863336        0       0.00002637       0.00072126       0.00157504
O        2.67211766       1.90759062       7.78136889        1       0.00102946       0.00006078      -0.00067567
O        4.18516971       1.03427062      12.23159545        3       0.00089564       0.00258476       0.01213339
C        1.15408577       2.78278473      10.00148749        2       0.00170500       0.00234619      -0.00232745
Ti       1.15279647       4.53270349      11.32673455        0      -0.00000761       0.00163919      -0.00004661
Ti       2.67037562       3.65747695       8.70477897        0      -0.00143806      -0.00272694       0.00195044
O        1.15659503       4.53377774       7.78045094        1      -0.00168694      -0.00043758      -0.00127404
O        2.66798238       3.65583167      12.23159545        3      -0.00056167       0.00023129      -0.01409112
C       -0.36010189       5.40627969      10.00434849        2       0.00190705      -0.00082707       0.00057429
Ti      -0.37276199       7.16795260      11.34762488        0       0.00140430       0.00123378       0.00106788
Ti       1.15329109       6.28214336       8.70636934        0      -0.00141398       0.00099693       0.00510863
O       -0.36188189       7.15812982       7.78896225        1      -0.00015414       0.00093892       0.00119963
O        1.15551108       6.28052257      12.23159545        3       0.00127301       0.00081987       0.01102031
C       -1.87466010       8.03202801      10.02569323        2       0.00113217      -0.00037646       0.00064682
Ti      -1.87354743       9.75927899      11.36071728        0       0.00398509       0.00056431      -0.00121870
Ti      -0.35718872       8.90707749       8.71423648        0       0.00000413      -0.00126926       0.00255273
O       -1.87497658       9.77850825       7.79251778        1       0.00126120       0.00002845      -0.00182016
O       -0.33498632       8.91694733      12.23159545        3       0.00031949       0.00216557      -0.20541829
C        5.70230355       0.15992817      10.00642095        2       0.00362777       0.00255145      -0.00340933
Ti       5.70205911       1.90327311      11.32511394        0      -0.00178880      -0.00171892      -0.00034461
Ti       7.21411014       1.03310596       8.70284138        0       0.00098155       0.00079350       0.00238366
O        5.69847583       1.90757633       7.78152281        1      -0.00234705      -0.00070072      -0.00300744
O        7.22122050       1.03564173      12.23159545        3       0.00154303       0.00127858      -0.01027278
C        4.18540764       2.78125504      10.00517000        2      -0.00085614       0.00224040      -0.00121909
Ti       4.18565009       4.53114982      11.32039000        0      -0.00141648       0.00166062       0.00038937
Ti       5.70034656       3.65722658       8.70431035        0      -0.00038445       0.00065378       0.00454964
O        4.18521087       4.53163779       7.77933385        1       0.00174483      -0.00077500      -0.00146321
O        5.70296167       3.65569261      12.23159545        3      -0.00225934       0.00243762      -0.01565362
C        2.66979570       5.40599353      10.00447744        2      -0.00122169       0.00080895       0.00123481
Ti       2.66810856       7.15833724      11.32458212        0      -0.00054846      -0.00000819      -0.00017302
Ti       4.18508257       6.28037972       8.70547312        0       0.00208827       0.00283870       0.00054652
O        2.66939708       7.15370254       7.78054734        1       0.00028442       0.00271402      -0.00150513
O        4.18505885       6.28276802      12.23159545        3       0.00123065       0.00169314      -0.02077038
C        1.15783125       8.03200161      10.00363201        2       0.00220486      -0.00000696       0.00033207
Ti       1.16647165       9.78685477      11.30568057        0      -0.00029795       0.00367666       0.00094524
Ti       2.66925129       8.90403119       8.70077612        0       0.00004866      -0.00012243       0.00483241
O        1.15246425       9.77889076       7.77929798        1      -0.00099121      -0.00049089      -0.00172527
O        2.67435906       8.90822486      12.23159545        3      -0.00185222       0.00091454      -0.01033903
C        8.73536673       0.16106761       9.99636523        2       0.00029131       0.00081047       0.00080812
Ti       8.73084424       1.90835751      11.31405220        0       0.00048837       0.00119053       0.00256001
Ti      10.24575416       1.03350701       8.68781787        0      -0.00225325       0.00116511       0.00277260
O        8.72734592       1.90960885       7.77247081        1       0.00196967      -0.00023057      -0.00059625
O       10.24535884       1.03478487      12.23159545        3       0.00037085      -0.00008346      -0.04720474
C        7.21695722       2.78267543      10.00105068        2      -0.00221560       0.00200690       0.00187921
Ti       7.21809075       4.53237256      11.32634928        0       0.00013772       0.00352518      -0.00062357
Ti       8.73016422       3.65878113       8.70173747        0       0.00025292      -0.00030973       0.00313391
O        7.21408676       4.53355897       7.78055058        1       0.00077880       0.00242771      -0.00227900
O        8.73353701       3.65296588      12.23159545        3       0.00053127      -0.00123396      -0.00827572
C        5.70090186       5.40584637      10.00470333        2      -0.00157265       0.00085636      -0.00125753
Ti       5.70207608       7.15831553      11.32436870        0      -0.00103520      -0.00283118       0.00081320
Ti       7.21712217       6.28232771       8.70663625        0      -0.00009457       0.00034817       0.00312576
O        5.70095726       7.15407659       7.78063746        1       0.00071235      -0.00003982      -0.00052698
O        7.21464310       6.28058612      12.23159545        3       0.00031103       0.00105333       0.00723187
C        4.18529974       8.03168749      10.00134385        2      -0.00018929      -0.00198411      -0.00244997
Ti       4.18479590       9.78049365      11.31704799        0       0.00472565       0.00158770       0.00054814
Ti       5.70081456       8.90420146       8.70132468        0       0.00186933      -0.00124577       0.00255420
O        4.18527826       9.77712102       7.77224316        1      -0.00034386       0.00192566      -0.00085001
O        5.69649115       8.90863377      12.23159545        3       0.00166022       0.00224413      -0.01063625
C        0.60491005      -0.17834110      16.25395735       10       0.00087274      -0.00167514       0.03467011
C        1.81139587       0.52274001      16.23866530       10       0.00247329      -0.00310712       0.01031470
C       -0.60542819       1.91880027      16.25927805       10       0.00065607      -0.00183897       0.03097716
C        0.60601706       2.61837641      16.24156762       10      -0.00143348      -0.00244675      -0.01105831
C       -1.81606877       4.01528383      16.25395735       10      -0.00061327      -0.00275998       0.03579243
C       -0.60551950       4.70940961      16.23866530       10      -0.00275319       0.00039983       0.00355971
C       -3.02268135       6.11722382      16.19084660       10      -0.00210098      -0.00276448       0.10380061
C       -1.81619893       6.79649308      16.14902438       10      -0.00172597      -0.00097156      -0.28924517
C       -4.23760894       8.22151462      16.19084660       10       0.00055220      -0.00201431       0.10017926
C       -3.04567003       8.92619942      16.14902438       10       0.00273304      -0.00159419      -0.30523598
C        3.02874140      -0.18522493      16.19084660       10       0.00294148      -0.00173810       0.10851860
C        4.24351159       0.52076846      16.15876792       10       0.00013232       0.00144725      -0.03954731
C        1.81815230       1.91974200      16.22762233       10      -0.00180478      -0.00329498       0.02672140
C        3.03012614       2.61833992      16.20570792       10      -0.00331387      -0.00101003       0.02359555
C        0.60749241       4.01664834      16.22762233       10      -0.00346522      -0.00130477       0.02997289
C        1.81835164       4.71719937      16.20570792       10      -0.00249433      -0.00211792       0.03016175
C       -0.60966922       6.11703137      16.19084660       10      -0.00100186       0.00127019       0.10823791
C        0.60879968       6.81631706      16.15876792       10       0.00191003      -0.00229288      -0.02628000
C       -1.81712400       8.21503058      15.69621872       10       0.00047462      -0.00158677       0.46055309
C       -0.58785558       8.92580450      16.14902438       10       0.00095491      -0.00146616      -0.31554489
C        5.45810570      -0.18563956      16.19084660       10      -0.00074651       0.00010783       0.10805827
C        6.67554401       0.52223980      16.23866530       10      -0.00158274       0.00016823       0.01359020
C        4.24381121       1.91593786      16.19110163       10      -0.00196236       0.00161297      -0.01797415
C        5.45753758       2.61822062      16.20570792       10      -0.00041251       0.00067667       0.02811207
C        3.03163059       4.01827811      16.20302631       10      -0.00264378      -0.00124522      -0.01512172
C        4.24394640       4.71806862      16.19802554       10      -0.00133147      -0.00056625       0.02870327
C        1.81714491       6.11894112      16.19110163       10       0.00190935      -0.00163869      -0.02325135
C        3.03204962       6.81881774      16.20570792       10       0.00175568      -0.00062256       0.03836304
C        0.60436628       8.22132261      16.19084660       10       0.00064962      -0.00210325       0.10222623
C        1.82585515       8.92134846      16.23866530       10      -0.00003003      -0.00090536       0.02395622
C        7.88228878      -0.17881931      16.25395735       10      -0.00076112       0.00029405       0.03299138
C        9.09547328       0.52176266      16.26089587       10      -0.00080551       0.00100695      -0.01132825
C        6.66930306       1.91928884      16.22762233       10       0.00042273       0.00025222       0.02241609
C        7.88147647       2.61828675      16.24156762       10       0.00155868      -0.00248208      -0.00369297
C        5.45609329       4.01826070      16.20302631       10      -0.00077790       0.00065977      -0.02024495
C        6.66945475       4.71720253      16.20570792       10      -0.00004809      -0.00164603       0.03768985
C        4.24390532       6.11733214      16.20302631       10      -0.00023873      -0.00064685      -0.03360702
C        5.45572276       6.81892246      16.20570792       10      -0.00212027       0.00013234       0.04367077
C        3.03280074       8.21778788      16.22762233       10       0.00012751      -0.00036628       0.01587049
C        4.24369581       8.91813764      16.24156762       10      -0.00111656       0.00211709       0.01467722
C       10.30369576      -0.17866156      16.25927805       10      -0.00093462       0.00186093       0.02309984
C       11.51194922       0.52195375      16.26089587       10       0.00202026      -0.00030708      -0.01133602
C        9.09290738       1.91861579      16.25927805       10       0.00166933      -0.00070977       0.03044779
C       10.30377340       2.61518274      16.26089587       10       0.00102473      -0.00199996      -0.01776856
C        7.88037112       4.01663643      16.22762233       10      -0.00003310      -0.00294413       0.02948005
C        9.09330398       4.70977500      16.23866530       10      -0.00091548      -0.00233454       0.00878093
C        6.67045227       6.11890052      16.19110163       10      -0.00321666      -0.00130114      -0.02733836
C        7.87867833       6.81651365      16.15876792       10      -0.00294739      -0.00235006      -0.01894218
C        5.45448512       8.21797376      16.22762233       10      -0.00162115       0.00066904       0.01648455
C        6.66121936       8.92170314      16.23866530       10       0.00108452      -0.00098509       0.02434863
O       -1.82119830       8.20574256      14.36954593       11      -0.00175599      -0.00127452       0.00761841
