131
Lattice="12.12 0.0 0.0 -6.06 10.496227893867395 0.0 0.0 0.0 40.0" Properties=species:S:1:pos:R:3:tags:I:1:forces:R:3 energy=-1205.9843215825808 stress="0.0029338865614048984 1.9296956904141556e-07 -1.6416861300113676e-07 1.9296956904141556e-07 0.0029346056125043995 4.6732078520345146e-07 -1.6416861300113676e-07 4.6732078520345146e-07 0.0024712198631133644" pbc="T T F"
C       -0.32331994       0.13673263      10.00281327        2       0.00000629       0.00004544       0.00102447
Ti      -0.32247274       1.88509110      11.29850330        0       0.00192162      -0.00145407      -0.00066820
Ti       1.19350045       1.01026097       8.71725721        0      -0.00131701      -0.00038025      -0.00112528
O       -0.31928321       1.88557981       7.77656320        1       0.00130648       0.00048613       0.00118949
O        1.19080678       1.01359483      12.23008024        3       0.00049706       0.00030946       0.09129728
C       -1.83627695       2.75802044      10.00198200        2       0.00015524      -0.00030305       0.00158477
Ti      -1.83640067       4.50669438      11.30134904        0      -0.00045373       0.00477024      -0.00121447
Ti      -0.32111137       3.63440228       8.71609954        0      -0.00177476      -0.00144450       0.00007641
O       -1.83624341       4.51412431       7.78166565        1       0.00054996       0.00050214       0.00103775
O       -0.32046642       3.63109666      12.23008024        3       0.00146801       0.00209965       0.09313123
C       -3.35173482       5.38352331      10.01112367        2       0.00017130       0.00048028       0.00097562
Ti      -3.34952077       7.13490754      11.32747289        0       0.00126897       0.00236670       0.00202083
Ti      -1.83628617       6.25809876       8.72874993        0       0.00018556      -0.00093819       0.00037989
O       -3.34819406       7.13543471       7.78874873        1      -0.00055121      -0.00011067       0.00080211
O       -1.83593815       6.24411089      12.23008024        3      -0.00065849       0.00031212       0.02239158
C       -4.86712011       8.00701208      10.01190756        2       0.00162178       0.00055483      -0.00003981
Ti      -4.86841069       9.75828705      11.30363002        0       0.00450041      -0.00262093       0.00011878
Ti      -3.35148052       8.88277012       8.73065313        0       0.00021087       0.00014036       0.00281907
O       -4.86176167       9.75481190       7.78317673        1       0.00017859      -0.00058151      -0.00070651
O       -3.36738702       8.88887378      12.23008024        3      -0.00293726       0.00191455      -0.06900221
C        2.70913432       0.13589272      10.01377299        2       0.00060653      -0.00138816      -0.00042752
Ti       2.70737225       1.88528454      11.30094708        0       0.00077847      -0.00386490      -0.00148795
Ti       4.22369291       1.00854209       8.72304454        0       0.00090762       0.00054571      -0.00035122
O        2.71019231       1.88278562       7.78035511        1       0.00046605       0.00005346      -0.00135897
O        4.22374536       1.01970877      12.23008024        3       0.00043384      -0.00074435       0.11455945
C        1.19365367       2.75976582      10.00399960        2      -0.00006825      -0.00104551       0.00106457
Ti       1.19358601       4.50732031      11.29991561        0      -0.00004778       0.00083437      -0.00157774
Ti       2.70885088       3.63412222       8.71567828        0      -0.00088582      -0.00102472       0.00214885
O        1.19332336       4.51065861       7.77925008        1       0.00002476       0.00160664      -0.00146984
O        2.70954366       3.63527310      12.23008024        3       0.00054508      -0.00039379       0.07177406
C       -0.32061296       5.38360348      10.01100350        2      -0.00088234       0.00036561       0.00090009
Ti      -0.32275816       7.13466576      11.32721088        0      -0.00337159       0.00191384      -0.00160495
Ti       1.19253937       6.25906653       8.72112382        0      -0.00094039       0.00038139       0.00028831
O       -0.32450375       7.13543149       7.78892192        1       0.00187805      -0.00102179      -0.00114983
O        1.20162493       6.25349313      12.23008024        3      -0.00074936       0.00000668       0.10180677
C       -1.83633618       8.00815446      10.02910384        2      -0.00005232      -0.00003802      -0.00195803
Ti      -1.83653637       9.75380850      11.33390769        0      -0.00095230      -0.00210148       0.00309924
Ti      -0.32126288       8.88277697       8.73074459        0       0.00104044       0.00051796       0.00054126
O       -1.83639844       9.75358372       7.78965366        1      -0.00010747       0.00011601       0.00094677
O       -0.30547384       8.88856742      12.23008024        3      -0.00069483       0.00047530      -0.04241109
C        5.73819835       0.13560592      10.01357890        2       0.00028345       0.00006151       0.00039628
Ti       5.73997847       1.88499397      11.30075565        0      -0.00126489      -0.00284592      -0.00247664
Ti       7.25402355       1.01007430       8.71687852        0       0.00097189       0.00069956      -0.00107063
O        5.73735776       1.88261564       7.78018956        1      -0.00189644       0.00082114      -0.00032579
O        7.25639001       1.01319338      12.23008024        3      -0.00030512      -0.00043821       0.09454714
C        4.22373912       2.75974469      10.00534050        2      -0.00001449      -0.00114063       0.00120940
Ti       4.22377616       4.50871187      11.30058643        0       0.00083851      -0.00084521      -0.00137695
Ti       5.73886292       3.63397533       8.71573996        0       0.00093621      -0.00084448       0.00002801
O        4.22384373       4.50869518       7.77717054        1      -0.00026471      -0.00000406      -0.00170745
O        5.73793830       3.63493784      12.23008024        3       0.00057557      -0.00039000       0.07052878
C        2.70906822       5.38343127      10.00474924        2       0.00071204      -0.00029539       0.00099406
Ti       2.71050263       7.13346578      11.29971991        0      -0.00152128      -0.00031211      -0.00079149
Ti       4.22388248       6.25819125       8.71533308        0       0.00012580       0.00096076       0.00322570
O        2.70713015       7.13282159       7.77923086        1      -0.00189117      -0.00065666      -0.00109459
O        4.22392774       6.25694869      12.23008024        3       0.00021474      -0.00029896       0.06213833
C        1.19466176       8.00709109      10.01152978        2      -0.00103580       0.00050887       0.00112906
Ti       1.19595060       9.75808632      11.30332940        0      -0.00465944      -0.00181889      -0.00147998
Ti       2.70872278       8.88234745       8.71659636        0       0.00006451       0.00223654       0.00003038
O        1.18917315       9.75470084       7.78277189        1      -0.00012409      -0.00096462       0.00085643
O        2.71382673       8.88262407      12.23008024        3      -0.00184934      -0.00183665       0.07928887
C        8.77062709       0.13658428      10.00256596        2       0.00083932       0.00010081       0.00174958
Ti       8.76951576       1.88482361      11.29838367        0      -0.00011821       0.00036057       0.00012046
Ti      10.28378092       1.01021915       8.71320069        0       0.00007705      -0.00002995       0.00249013
O        8.76703323       1.88544330       7.77627100        1      -0.00251971       0.00106395       0.00275339
O       10.28345643       1.01188110      12.23008024        3      -0.00013329       0.00004366       0.08805740
C        7.25380277       2.75943765      10.00371073        2       0.00035972       0.00046685       0.00266043
Ti       7.25370422       4.50680715      11.29971718        0       0.00138637       0.00261578      -0.00206323
Ti       8.76892050       3.63424917       8.71599568        0      -0.00024895      -0.00119434      -0.00058496
O        7.25445367       4.51065147       7.77921898        1      -0.00146574       0.00160757      -0.00011335
O        8.76794264       3.63066519      12.23008024        3       0.00106165       0.00031331       0.09603069
C        5.73850633       5.38322916      10.00479223        2       0.00078474       0.00036156       0.00110247
Ti       5.73782163       7.13333138      11.30051503        0       0.00273356       0.00150173      -0.00134460
Ti       7.25510342       6.25896481       8.72126698        0       0.00004138      -0.00095663      -0.00027196
O        5.74066403       7.13285410       7.77948102        1       0.00069194      -0.00021385      -0.00113180
O        7.24609987       6.25301246      12.23008024        3       0.00017772       0.00036236       0.09888598
C        4.22377700       8.00762813      10.00395548        2       0.00053325       0.00048199       0.00116350
Ti       4.22363358       9.75861249      11.29872343        0       0.00143892      -0.00084820      -0.00104158
Ti       5.73870869       8.88235924       8.71712329        0      -0.00028998       0.00175544      -0.00148742
O        4.22381560       9.75518678       7.77664814        1       0.00033429      -0.00161646       0.00101998
O        5.73386430       8.88251626      12.23008024        3      -0.00006246      -0.00041315       0.08289648
C        0.54565596      -0.14274049      16.53665266       10       0.00220107      -0.00181035       0.00235587
C        1.75623364       0.55659776      16.52136061       10       0.00204645       0.00085871       0.01539669
C       -0.66457784       1.95562598      16.54197336       10       0.00079225      -0.00237579      -0.03137079
C        0.54759439       2.65551787      16.52426293       10      -0.00069554      -0.00286976      -0.00050752
C       -1.87664622       4.05298645      16.53665266       10       0.00111459      -0.00012452      -0.00779146
C       -0.66568316       4.75185327      16.52136061       10       0.00105928      -0.00059411       0.02103043
C       -3.08360086       6.15576501      16.47354191       10      -0.00123845      -0.00205398      -0.00817441
C       -1.87665843       6.83824673      16.43171969       10       0.00028160      -0.00371107      -0.45932824
C       -4.29651742       8.25685521      16.47354191       10      -0.00147114      -0.00015149      -0.01372011
C       -3.10191553       8.96069277      16.43171969       10      -0.00144762       0.00189985      -0.48330323
C        2.97023321      -0.14902293      16.47354191       10       0.00050559       0.00171280      -0.00309135
C        4.18321033       0.55498988      16.44146323       10       0.00075335      -0.00073278       0.17539199
C        1.75913906       1.95494289      16.51031764       10      -0.00218640       0.00121270      -0.01853824
C        2.97112293       2.65446200      16.48840323       10      -0.00040923      -0.00099954      -0.03458149
C        0.54656340       4.05500427      16.51031764       10      -0.00155931      -0.00262885      -0.02841894
C        1.75836811       4.75499169      16.48840323       10      -0.00064559       0.00042998      -0.02996319
C       -0.66968267       6.15576791      16.47354191       10       0.00082630      -0.00328238      -0.00629709
C        0.54610083       6.85448319      16.44146323       10       0.00123089       0.00125425       0.17933125
C       -1.87671889       8.25297226      15.97891403       10       0.00039803       0.00013570       0.47718601
C       -0.65163641       8.96065882      16.43171969       10       0.00389188       0.00088422      -0.47864902
C        5.39610182      -0.14911591      16.47354191       10       0.00138541       0.00307636      -0.00307062
C        6.61011473       0.55636901      16.52136061       10       0.00112131       0.00126753       0.01426911
C        4.18337760       1.95219264      16.47379694       10      -0.00185995      -0.00079171      -0.08448898
C        5.39567217       2.65436356      16.48840323       10      -0.00123154       0.00019378      -0.03499427
C        2.97068917       4.05447956      16.48572162       10      -0.00363398      -0.00085331       0.00226896
C        4.18350060       4.75466440      16.48072085       10      -0.00094989       0.00085985      -0.02655440
C        1.75606683       6.15592627      16.47379694       10      -0.00042560      -0.00153974      -0.08147421
C        2.97052850       6.85441697      16.48840323       10       0.00002928       0.00282316      -0.03113056
C        0.54299715       8.25680272      16.47354191       10       0.00080410       0.00003115      -0.01378431
C        1.76105318       8.95511061      16.52136061       10       0.00047673      -0.00060241       0.02151015
C        7.82069962      -0.14297687      16.53665266       10      -0.00060229       0.00113004       0.00124501
C        9.03214430       0.55637598      16.54359118       10      -0.00011729      -0.00007348      -0.01144747
C        6.60752412       1.95471858      16.51031764       10      -0.00026521       0.00105632      -0.01965710
C        7.81899421       2.65532139      16.52426293       10       0.00129735      -0.00083737      -0.00073019
C        5.39631733       4.05440404      16.48572162       10      -0.00188068      -0.00057011       0.00302495
C        6.60852445       4.75496961      16.48840323       10      -0.00008632      -0.00056502      -0.03322878
C        4.18348503       6.15497533      16.48572162       10      -0.00094268      -0.00007863      -0.00421320
C        5.39631506       6.85454731      16.48840323       10      -0.00077403       0.00163970      -0.03290615
C        2.97069860       8.25375952      16.51031764       10       0.00164219       0.00158796      -0.01817030
C        4.18324300       8.95255224      16.52426293       10      -0.00055701       0.00330166       0.00019896
C       10.24317407      -0.14394245      16.54197336       10       0.00031976       0.00133207      -0.02969465
C       11.45414030       0.55656042      16.54359118       10       0.00392277      -0.00138913      -0.01155471
C        9.03107162       1.95544560      16.54197336       10       0.00121632      -0.00061422      -0.03057948
C       10.24324422       2.65402389      16.54359118       10       0.00085092       0.00063587      -0.00719216
C        7.82025496       4.05487047      16.51031764       10       0.00022475      -0.00261629      -0.02999049
C        9.03246252       4.75179973      16.52136061       10      -0.00159240      -0.00023962       0.01921524
C        6.61069735       6.15591192      16.47379694       10      -0.00052366      -0.00035341      -0.08044184
C        7.82058565       6.85448665      16.44146323       10      -0.00182669       0.00151124       0.17955151
C        5.39588184       8.25386619      16.51031764       10      -0.00177478       0.00069909      -0.01738074
C        6.60542283       8.95531209      16.52136061       10       0.00021446       0.00086273       0.02165535
O       -1.87602851       8.24463184      14.63070613       11       0.00029502       0.00235980       0.00842265
