132
Lattice="12.12 0.0 0.0 -6.06 10.496227893867395 0.0 0.0 0.0 40.0" Properties=species:S:1:pos:R:3:tags:I:1:forces:R:3 energy=-1210.0345976632773 stress="0.0028537592355894347 3.0715951808234395e-06 -3.6483077460062306e-06 3.0715951808234395e-06 0.002857622197480046 1.17731540764163e-06 -3.6483077460062306e-06 1.17731540764163e-06 0.0022635263368728734" pbc="T T F"
C        0.00149933      -0.00196993      10.00571379        2      -0.00025996      -0.00030782       0.00084590
Ti      -0.00050037       1.74872536      11.30607088        0      -0.00150020       0.00052090      -0.00212790
Ti       1.51577458       0.87347088       8.71524281        0       0.00069951      -0.00045118       0.00062353
O       -0.00054096       1.74860805       7.77876290        1       0.00068618      -0.00049330       0.00101520
O        1.51972050       0.87133357      12.23008024        3      -0.00091034       0.00013022       0.12225498
C       -1.51431126       2.62258512      10.01409818        2      -0.00019058       0.00009772      -0.00086740
Ti      -1.51056386       4.37137799      11.30418224        0       0.00060317       0.00015605      -0.00150592
Ti       0.00193205       3.49739294       8.71774514        0      -0.00069873      -0.00007551       0.00050341
O       -1.51427335       4.36994531       7.77942745        1      -0.00049272       0.00129625       0.00085670
O        0.00583495       3.49748414      12.23008024        3      -0.00143944      -0.00070994       0.07479782
C       -3.02835793       5.24650469      10.00744253        2      -0.00032392       0.00015680       0.00066655
Ti      -3.02918351       6.99578842      11.29352724        0      -0.00101739       0.00016388      -0.00153794
Ti      -1.51311997       6.12055819       8.71526685        0      -0.00078958       0.00043407       0.00090264
O       -3.02802232       6.99474229       7.77485631        1      -0.00026055      -0.00047474      -0.00053136
O       -1.51414311       6.12541056      12.23008024        3      -0.00058729      -0.00026996       0.11029378
C       -4.54369423       7.87071072      10.00295630        2      -0.00036802      -0.00050605       0.00044548
Ti      -4.54361675       9.61982741      11.29372212        0      -0.00050770       0.00026549       0.00025014
Ti      -3.02857760       8.74515688       8.71295375        0      -0.00021345       0.00002100       0.00025868
O       -4.54390461       9.62052753       7.77438926        1       0.00020665      -0.00003426      -0.00071974
O       -3.02861333       8.74604218      12.23008024        3      -0.00063296       0.00068955       0.10432420
C        3.03135227      -0.00150274      10.00308442        2       0.00044130      -0.00061398       0.00027352
Ti       3.03163519       1.74786338      11.29356849        0      -0.00075991      -0.00016824      -0.00001010
Ti       4.54660150       0.87315113       8.71331158        0      -0.00029718       0.00031169      -0.00008317
O        3.03086180       1.74763679       7.77436444        1      -0.00012407      -0.00045284      -0.00053278
O        4.54542858       0.87241058      12.23008024        3      -0.00092330       0.00011473       0.11859356
C        1.51681452       2.62254653      10.00530454        2      -0.00011878       0.00004980       0.00091627
Ti       1.51803314       4.37210328      11.29307083        0      -0.00006206      -0.00073076       0.00008308
Ti       3.03136035       3.49692936       8.71316988        0       0.00012444       0.00055391      -0.00058919
O        1.51455331       4.37082584       7.77522133        1      -0.00147624      -0.00033938       0.00025536
O        3.03256474       3.49681713      12.23008024        3      -0.00130236      -0.00065927       0.12131167
C        0.00185906       5.24685219      10.00622517        2      -0.00013855       0.00033493       0.00104610
Ti       0.00197555       6.99627733      11.29376889        0      -0.00027550      -0.00012090      -0.00056400
Ti       1.51660480       6.12133913       8.71349416        0       0.00038410      -0.00031696      -0.00091756
O        0.00077244       6.99502167       7.77440051        1      -0.00013752       0.00059032      -0.00035091
O        1.51789987       6.12170812      12.23008024        3      -0.00078390      -0.00010388       0.10569102
C       -1.51334483       7.87051730      10.00324263        2      -0.00064578       0.00053628       0.00062548
Ti      -1.51379242       9.62003094      11.29404777        0       0.00004457       0.00003398      -0.00037966
Ti       0.00144352       8.74518825       8.71316148        0       0.00044399      -0.00033740       0.00017007
O       -1.51338575       9.61997342       7.77374834        1      -0.00005470      -0.00016659      -0.00133600
O        0.00050417       8.74576598      12.23008024        3       0.00098958      -0.00080623       0.10747986
C        6.06150903      -0.00176152      10.00354702        2      -0.00088986      -0.00020251       0.00068947
Ti       6.06181680       1.74875633      11.29444186        0      -0.00090963       0.00054160      -0.00123439
Ti       7.57715717       0.87290790       8.71611552        0      -0.00143346       0.00027355       0.00046003
O        6.06286411       1.74774122       7.77535349        1      -0.00003307       0.00025119      -0.00046984
O        7.57188404       0.87143407      12.23008024        3      -0.00017302       0.00006685       0.12410917
C        4.54615759       2.62266377      10.00320109        2       0.00014748       0.00032531       0.00052820
Ti       4.54519031       4.37210540      11.29273034        0      -0.00034534       0.00010237      -0.00141964
Ti       6.06115359       3.49719590       8.71343934        0      -0.00056193       0.00129445      -0.00063005
O        4.54701996       4.37095848       7.77326899        1      -0.00096547      -0.00032744      -0.00083080
O        6.06039314       3.49733554      12.23008024        3       0.00081726      -0.00010433       0.08164161
C        3.03214471       5.24680837      10.00217680        2      -0.00041911      -0.00031754       0.00133061
Ti       3.03149277       6.99565441      11.29371390        0      -0.00108869       0.00046027      -0.00085399
Ti       4.54628787       6.12134830       8.71197860        0      -0.00004237      -0.00033005       0.00137196
O        3.03073860       6.99636809       7.77298972        1      -0.00003639      -0.00029594      -0.00018662
O        4.54603178       6.12131791      12.23008024        3      -0.00053984       0.00020774       0.11042043
C        1.51635102       7.87018402      10.00289499        2      -0.00007295      -0.00003189       0.00010859
Ti       1.51603846       9.61845224      11.29332013        0      -0.00044306      -0.00040645      -0.00062936
Ti       3.03145772       8.74482770       8.71370535        0       0.00030104      -0.00067778      -0.00123887
O        1.51700534       9.62108612       7.77476790        1      -0.00050732      -0.00043764      -0.00022694
O        3.03055212       8.74269970      12.23008024        3       0.00007306       0.00030143       0.10165570
C        9.09130022      -0.00248553      10.00729064        2      -0.00052916      -0.00036701       0.00082868
Ti       9.09345121       1.74506157      11.30930566        0      -0.00048008      -0.00114908      -0.00275382
Ti      10.60626977       0.87256901       8.71856177        0      -0.00009438       0.00047749       0.00056481
O        9.09254615       1.74892470       7.77992769        1      -0.00140834      -0.00060453       0.00176049
O       10.60875121       0.86797277      12.23008024        3      -0.00049321       0.00152506       0.07034733
C        7.57640157       2.62226565      10.00787104        2      -0.00059900       0.00000343       0.00060613
Ti       7.57156254       4.37482167      11.28808806        0       0.00274407      -0.00173205       0.00279479
Ti       9.09142025       3.49686597       8.72192232        0      -0.00075086       0.00034229       0.00073723
O        7.57854546       4.37049734       7.77675701        1       0.00057677      -0.00042514      -0.00116043
O        9.08431600       3.50063751      12.23008024        3       0.00066550      -0.00037769       0.24517256
C        6.05964378       5.24755558      10.00250231        2      -0.00004026      -0.00008789       0.00077086
Ti       6.06073261       6.99627917      11.29295402        0      -0.00052700      -0.00016029      -0.00130289
Ti       7.57633740       6.12132360       8.71313084        0      -0.00145281      -0.00079425      -0.00016832
O        6.06233185       6.99592568       7.77336357        1      -0.00006802       0.00061776      -0.00116158
O        7.57582823       6.12333449      12.23008024        3       0.00013526      -0.00091881       0.11346621
C        4.54641032       7.86931236      10.00230225        2      -0.00014342       0.00034258       0.00087459
Ti       4.54660150       9.61821287      11.29435011        0       0.00041954       0.00068026       0.00034175
Ti       6.06153009       8.74545401       8.71358577        0      -0.00076193      -0.00080300      -0.00053013
O        4.54616460       9.62202232       7.77576649        1      -0.00053685       0.00118270       0.00035655
O        6.06230429       8.74380859      12.23008024        3      -0.00077663       0.00139132       0.11303082
C        0.06350839       0.05802965      16.99362273       10       0.00293076       0.00012208      -0.04203914
C        1.27267575       0.75992053      17.00201096       10      -0.00375638      -0.00357314      -0.01612286
C       -1.13240493       2.14833954      16.96925206       10       0.00343077       0.00175634       0.51449648
C        0.06009229       2.85732935      16.97689080       10       0.00288024      -0.00290237       0.02619555
C       -2.36773130       4.28364765      16.96924651       10       0.00090044       0.00055976       0.23808931
C       -1.15652098       4.96232405      16.97688824       10       0.00333772      -0.00373778       0.02835985
C       -3.57862000       6.36608745      16.99362218       10      -0.00726012       0.00229384      -0.00451306
C       -2.36626041       7.06254954      17.00201076       10      -0.00230487      -0.00581520       0.00647791
C       -4.79013281       8.45911241      16.99172979       10       0.00685461       0.00124257      -0.01349953
C       -3.57854626       9.15872879      17.00301945       10       0.00150875      -0.00119952      -0.03320819
C        2.48295872       0.06093139      17.00404447       10       0.00291125      -0.00241668      -0.02845386
C        3.69351630       0.76108645      17.00301936       10       0.00035460       0.00074545      -0.03557118
C        1.27573887       2.15784312      16.99362294       10       0.00412637       0.00125128      -0.03560720
C        2.48306819       2.86017561      16.98456281       10       0.00093888       0.00079746      -0.04182496
C        0.05674257       4.25970131      16.95076292       10       0.00386178      -0.00160915       0.13440798
C        1.26781125       4.95864451      16.96243287       10      -0.00147247       0.00180220      -0.07535476
C       -1.15401259       6.36509462      16.99362218       10       0.00008083      -0.00082906      -0.01961402
C        0.05824260       7.06007284      16.98456291       10      -0.00174259      -0.00065433      -0.04122222
C       -2.36662711       8.46074004      17.00404468       10       0.00653553      -0.00381265      -0.03363199
C       -1.15451199       9.15832727      17.00301945       10       0.00321248       0.00228481      -0.03330131
C        4.90391570       0.06050880      17.00404447       10       0.00076372      -0.00343183      -0.03010992
C        6.11487567       0.75945685      17.00201096       10       0.00032222       0.00405470       0.01085034
C        3.69337599       2.16014582      16.99172966       10       0.00045362       0.00161929      -0.00954656
C        4.90396152       2.86020667      16.98456281       10       0.00111198      -0.00151623      -0.04039168
C        2.48126447       4.25948491      16.97067931       10      -0.00083213       0.00305282      -0.04581618
C        3.69314247       4.95965949      16.96789145       10       0.00005201       0.00042539      -0.01274840
C        1.26966759       6.35931509      16.97067921       10      -0.00231875       0.00208564      -0.05252320
C        2.48164169       7.05905851      16.96789134       10      -0.00003492       0.00101481      -0.00819236
C        0.05732180       8.45869418      16.99172979       10       0.00003445      -0.00071639      -0.02438333
C        1.26899338       9.15714247      16.98456266       10       0.00043168       0.00594581      -0.03569186
C        7.32499323       0.05816231      16.99362273       10      -0.00289219       0.00060205      -0.01719748
C        8.53846395       0.76138632      16.97689061       10       0.00051204       0.00033471       0.03089965
C        6.11128886       2.15763264      16.99362294       10       0.00075392       0.00362798      -0.00954756
C        7.32629945       2.85793323      16.97689080       10       0.00230895      -0.00066615      -0.00018354
C        4.90506694       4.25969775      16.97067931       10      -0.00048385      -0.00043120      -0.04384048
C        6.11849959       4.95931696      16.96243287       10      -0.00118055      -0.00039310      -0.06875899
C        3.69365355       6.35957864      16.96481345       10      -0.00074088      -0.00149736      -0.05519786
C        4.90577511       7.05980444      16.96789134       10      -0.00354279       0.00028447      -0.01975619
C        2.48160394       8.45847829      16.97067904       10      -0.00384523      -0.00068976      -0.04707841
C        3.69372881       9.16032765      16.96243246       10      -0.00094736       0.00133355      -0.07806295
C        9.75361506       0.06226776      16.95076287       10       0.00133990      -0.00018836       0.14103728
C       10.96979124       0.76082687      16.97689061       10      -0.00176960      -0.00353876       0.01115509
C        8.52008659       2.15002875      16.96925206       10       0.00180285       0.00195635       0.24134538
C        9.75172434       2.86171702      16.72489280       10       0.00508867      -0.00277959      -2.12449757
C        7.32920850       4.26010847      16.95076292       10      -0.00072718       0.00161206       0.12877253
C        8.54222939       4.96357433      16.97688824       10       0.00395883      -0.00232043       0.01240972
C        6.11788779       6.36007300      16.97067921       10      -0.00399486      -0.00096936      -0.03459487
C        7.32933030       7.06068091      16.98456291       10      -0.00329930      -0.00185930      -0.03881888
C        4.90595604       8.45934843      16.97067904       10       0.00253808      -0.00147390      -0.04388806
C        6.11865127       9.15744638      16.98456266       10      -0.00233271      -0.00394723      -0.04629994
O        9.83080058       2.79727232      15.15023439       11       0.00388975       0.00698022      -0.00214069
H        9.11542330       3.31141409      14.73022427       12       0.00016374       0.00702846      -0.00286810
