132
Lattice="12.12 0.0 0.0 -6.06 10.496227893867395 0.0 0.0 0.0 40.0" Properties=species:S:1:pos:R:3:tags:I:1:forces:R:3 energy=-1206.6090884209475 stress="0.002673471294375551 2.7901573720748704e-05 7.623059631069364e-06 2.7901573720748704e-05 0.002612653410349117 2.23787338844531e-06 7.623059631069364e-06 2.23787338844531e-06 0.003052461774545768" pbc="T T F"
C       -0.12215836       0.19512018       9.93817628        2       0.00247345       0.00207859      -0.00227681
Ti      -0.17090516       1.96037032      11.36836347        0      -0.00047411      -0.00175711      -0.00017810
Ti       1.37842708       1.08797211       8.70735855        0       0.00330612       0.00052342       0.00844359
O       -0.14942873       1.97017578       7.80051992        1       0.00342966       0.00083100       0.00190025
O        1.39477739       1.07279470      12.23159545        3       0.00039614      -0.00097202      -0.19975096
C       -1.66226902       2.82836572      10.06427353        2       0.00181258       0.00187403      -0.00455516
Ti      -1.61749989       4.61925122      11.24703104        0       0.00057475       0.00349013      -0.00098280
Ti      -0.12074081       3.71355664       8.71340309        0       0.00556357       0.00445335      -0.00025804
O       -1.64765700       4.56833521       7.77997629        1       0.00262434      -0.00135804      -0.00012645
O       -0.10103210       3.75066564      12.23159545        3       0.00144970       0.00060147      -0.44818379
C       -3.17212710       5.48427388       9.92928505        2       0.00181937      -0.00379480       0.00380775
Ti      -3.16504750       7.22380457      11.28005378        0       0.00176493      -0.00247629       0.00394940
Ti      -1.65050788       6.34041576       8.67518082        0       0.00151343       0.00394266       0.00608617
O       -3.15738335       7.21972627       7.74749570        1       0.00157386       0.00270368      -0.00301705
O       -1.65577110       6.36435328      12.23159545        3       0.00301868       0.00262143      -0.27419396
C       -4.67399007       8.08736501       9.93697288        2       0.00168700      -0.00132097      -0.00016071
Ti      -4.67161069       9.82458344      11.27910056        0       0.00066946       0.00350948      -0.00150014
Ti      -3.15416702       8.96876887       8.69267400        0       0.00305382      -0.00027512      -0.00018969
O       -4.67171392       9.84131128       7.75524627        1       0.00154397       0.00368408      -0.00115442
O       -3.16282836       8.96372904      12.23159545        3       0.00386251       0.00046614      -0.18950871
C        2.90094578       0.21633123       9.96589739        2       0.00018911       0.00351871      -0.00689573
Ti       2.89601124       1.95772071      11.29665035        0       0.00382306      -0.00241945      -0.00126490
Ti       4.41068613       1.09038909       8.70259358        0       0.00111678      -0.00019334       0.00629615
O        2.89806326       1.96126014       7.76998388        1      -0.00026470      -0.00113172      -0.00032798
O        4.40612844       1.08597206      12.23159545        3       0.00431615       0.00028626      -0.21382235
C        1.37934837       2.83750091       9.96578296        2      -0.00196748      -0.00049350      -0.00178279
Ti       1.40593794       4.59618425      11.27965453        0       0.00078170       0.00292159      -0.00391806
Ti       2.89427725       3.70249137       8.70245922        0       0.00160308       0.00168590       0.00472100
O        1.37309861       4.58092565       7.77421749        1       0.00040276       0.00302870      -0.00248075
O        2.89422755       3.70698161      12.23159545        3       0.00067554      -0.00278692      -0.17590733
C       -0.12775558       5.47243080       9.96068360        2       0.00056465      -0.00375236       0.00007660
Ti      -0.14089825       7.22530393      11.29221120        0       0.00089421      -0.00300414       0.00102960
Ti       1.37726468       6.34037105       8.69309647        0       0.00535486       0.00190178       0.00469613
O       -0.13071078       7.21581078       7.76224873        1       0.00311532       0.00055405      -0.00487715
O        1.37604587       6.33661497      12.23159545        3       0.00244179       0.00408114      -0.23195130
C       -1.64468260       8.09245711       9.95300465        2      -0.00002935      -0.00077491       0.00097449
Ti      -1.64370738       9.84197580      11.28769956        0      -0.00024184       0.00293633       0.00070394
Ti      -0.13499035       8.96392873       8.70406658        0      -0.00161932      -0.00055644       0.00257375
O       -1.63852600       9.84513980       7.76410123        1      -0.00072705      -0.00058930       0.00048963
O       -0.14256142       8.95961427      12.23159545        3       0.00038436       0.00343668      -0.17360776
C        5.93447101       0.21705303       9.97294723        2       0.00316872       0.00307753       0.00048241
Ti       5.94490022       1.97324989      11.28992422        0       0.00034153       0.00555553      -0.00256429
Ti       7.44269755       1.08685940       8.70776871        0      -0.00479385       0.00259301      -0.00058552
O        5.93837860       1.96192243       7.78009315        1      -0.00179648       0.00083730      -0.00162385
O        7.42439016       1.07531483      12.23159545        3       0.00004420      -0.00168731      -0.02952805
C        4.40970285       2.83815292       9.96281909        2       0.00423767       0.00027658      -0.00292646
Ti       4.40178565       4.58342390      11.28028269        0      -0.00079924      -0.00290912      -0.00093938
Ti       5.91944864       3.70488956       8.70221359        0       0.00232659      -0.00150597       0.00528283
O        4.41240943       4.57529521       7.76594940        1      -0.00012604      -0.00121747      -0.00732303
O        5.90805537       3.72870002      12.23159545        3       0.00366308      -0.00089469      -0.21510307
C        2.89861846       5.46316125       9.96468227        2       0.00099461       0.00074176       0.00096454
Ti       2.89212150       7.19783391      11.29002295        0      -0.00060856      -0.00359668      -0.00153402
Ti       4.40977924       6.33450824       8.66666545        0       0.00067901       0.00526099       0.00332895
O        2.89146372       7.21406943       7.76074065        1      -0.00231920       0.00527426      -0.00316464
O        4.41182582       6.33621713      12.23159545        3      -0.00045826       0.00462556      -0.29731484
C        1.37999265       8.08100867       9.96044760        2       0.00138378       0.00361530      -0.00320126
Ti       1.38997985       9.83528723      11.28065569        0       0.00453585      -0.00165117      -0.00111655
Ti       2.89194226       8.95361144       8.69963854        0       0.00426782      -0.00284784       0.00278653
O        1.39110297       9.84436738       7.77883509        1      -0.00036163      -0.00115870      -0.00513332
O        2.89546749       8.92748772      12.23159545        3       0.00014492      -0.00231140      -0.23807198
C        8.96850292       0.20751828      10.00028478        2      -0.00031590      -0.00054953      -0.00309443
Ti       9.01169223       1.92948546      11.33953230        0       0.00207545       0.00142066      -0.00535324
Ti      10.48026409       1.06440333       8.72237812        0       0.00303306       0.00301787       0.00061281
O        8.96704598       1.96426159       7.80092466        1       0.00154825       0.00287696      -0.00398100
O       10.60406059       0.86913277      12.23159545        3      -0.00069250       0.00536545      -0.85246681
C        7.45372256       2.84258499       9.99320582        2       0.00252373      -0.00124688      -0.00237004
Ti       7.35658928       4.64886034      11.23228793        0      -0.00442064       0.00637808      -0.00563914
Ti       8.94227961       3.72316489       8.70491772        0       0.00398864      -0.00230749       0.00805924
O        7.44071949       4.57519649       7.76893394        1       0.00127120       0.00029803      -0.00794497
O        8.85262635       3.95126110      12.23159545        3      -0.00020858      -0.00286678      -1.26117908
C        5.90557128       5.47643257       9.95968078        2       0.00478562      -0.00092540       0.00416132
Ti       5.93431745       7.21386456      11.27767271        0       0.00461734      -0.00201188      -0.00219292
Ti       7.45212875       6.35055260       8.67189610        0      -0.00004237       0.00042570       0.00723818
O        5.92261630       7.20861062       7.74919523        1       0.00122698       0.00264403      -0.00354874
O        7.43577297       6.37723427      12.23159545        3       0.00109266       0.00121366      -0.28370241
C        4.41383758       8.05769387       9.95555767        2       0.00112793       0.00303549       0.00295008
Ti       4.42436878       9.73794459      11.24391268        0       0.00267198       0.00614962      -0.00358598
Ti       5.94329464       8.96360714       8.67880415        0      -0.00376724      -0.00050073       0.00553999
O        4.40201363       9.83752473       7.77113460        1       0.00065536      -0.00067975       0.00127030
O        5.96164937       8.93335891      12.23159545        3      -0.00041773       0.00020973      -0.23986338
C        0.27222574      -0.28920112      15.14776952       10      -0.00067037      -0.00057193       0.07623055
C        1.47870651       0.41423506      15.15615775       10      -0.00403284      -0.00284134       0.05122103
C       -0.92040028       1.79802824      15.12339885       10      -0.00228235      -0.00560251       0.39810607
C        0.26907404       2.51208833      15.13103759       10      -0.00456725      -0.00390712       0.13404242
C       -2.15910034       3.95048022      15.12339330       10       0.00068240      -0.00462728       0.90939854
C       -0.94860934       4.62317857      15.13103503       10      -0.00241590      -0.00209989       0.13132779
C       -3.37345350       6.02766304      15.14776897       10       0.00196031      -0.00199774       0.09370534
C       -2.16064551       6.71987532      15.15615755       10      -0.00190688       0.00086058       0.03678500
C       -4.58367802       8.11574669      15.14587658       10       0.00270911      -0.00211653       0.06462179
C       -3.37307443       8.81394925      15.15716624       10      -0.00235483      -0.00412468      -0.00344217
C        2.68884278      -0.28507397      15.15819126       10      -0.00313697       0.00115778       0.04850795
C        3.89686792       0.41509035      15.15716615       10      -0.00243401      -0.00208414       0.03048893
C        1.48324602       1.81278221      15.14776973       10      -0.00245424      -0.00191965       0.07391693
C        2.68888968       2.51609353      15.13870960       10      -0.00121703       0.00036256       0.12348461
C        0.26621960       3.91604304      15.10490971       10      -0.00308933      -0.00366021       0.02296325
C        1.47427047       4.61458641      15.11657966       10      -0.00197883      -0.00338601       0.13199399
C       -0.94826322       6.02501620      15.14776897       10      -0.00290281      -0.00075509       0.09994320
C        0.26342335       6.71617362      15.13870970       10      -0.00225478      -0.00033444       0.12136375
C       -2.16182961       8.11685621      15.15819147       10      -0.00141634       0.00032323       0.04510122
C       -0.95164832       8.81337478      15.15716624       10      -0.00109035      -0.00392837       0.01444272
C        5.10734353      -0.28496825      15.15819126       10      -0.00227740       0.00039183       0.07105666
C        6.31908548       0.41443992      15.15615775       10      -0.00246771      -0.00305938       0.04164138
C        3.89810397       1.81523640      15.14587645       10      -0.00249243      -0.00142184       0.06743203
C        5.10661544       2.51733362      15.13870960       10      -0.00245669      -0.00084694       0.06494614
C        2.68749681       3.91527910      15.12482610       10       0.00012251       0.00011181       0.04179727
C        3.89828228       4.61646685      15.12203824       10      -0.00022254       0.00124806       0.12559137
C        1.47427176       6.01452571      15.12482600       10      -0.00385390      -0.00329221       0.04224506
C        2.68748093       6.71297571      15.12203813       10      -0.00407014      -0.00094403       0.13013727
C        0.26121862       8.11415651      15.14587658       10      -0.00013542       0.00031954       0.06475183
C        1.47273937       8.80955775      15.13870945       10       0.00037713      -0.00228316       0.05024081
C        7.52709597      -0.28902641      15.14776952       10      -0.00105097       0.00229551       0.09516330
C        8.74142066       0.41465044      15.13103740       10      -0.00118094      -0.00073726       0.10201677
C        6.31384762       1.81311238      15.14776973       10      -0.00322970      -0.00321799       0.10385180
C        7.53004725       2.51210525      15.13103759       10      -0.00256096      -0.00251432       0.09269563
C        5.11029784       3.91545400      15.12482610       10      -0.00099634      -0.00047670       0.07371203
C        6.32372699       4.61716090      15.11657966       10       0.00039569      -0.00123482       0.03745893
C        3.89879506       6.01459143      15.11896024       10      -0.00354442       0.00036409       0.04023063
C        5.11098445       6.71478294      15.12203813       10      -0.00294842       0.00030794       0.04551717
C        2.68607358       8.11339444      15.12482583       10      -0.00002129       0.00020981       0.07332915
C        3.90012486       8.81403944      15.11657925       10      -0.00033724      -0.00129854       0.00933430
C        9.95978571      -0.28583722      15.10490966       10      -0.00138740       0.00331491       0.06663690
C       11.18014620       0.41508987      15.13103740       10      -0.00605725      -0.00183328       0.08099811
C        8.72008730       1.80028270      15.12339885       10      -0.00287098      -0.00174252       0.15284012
C        9.95940993       2.51040284      14.87903959       10      -0.00707017       0.00014085       0.51327482
C        7.53203722       3.91803165      15.10490971       10       0.00102532      -0.00194495       0.10174254
C        8.74933248       4.62725882      15.13103503       10      -0.00253622       0.00039052       0.33567494
C        6.32393106       6.01740905      15.12482600       10      -0.00165342      -0.00056209       0.08211511
C        7.53374649       6.71996636      15.13870970       10      -0.00328607       0.00077441      -0.00761566
C        5.11280719       8.11417833      15.12482583       10      -0.00062783       0.00071717       0.05549238
C        6.32628351       8.81165634      15.13870945       10      -0.00333311      -0.00439266      -0.02107155
O       10.01004492       2.60999571      13.44777138       11       0.00303054      -0.00016600       0.00177878
H        9.33009550       3.46341824      13.15865918       12      -0.00518356       0.00113656       0.00028073
