131
Lattice="12.12 0.0 0.0 -6.06 10.496227893867395 0.0 0.0 0.0 40.0" Properties=species:S:1:pos:R:3:tags:I:1:forces:R:3 energy=-1205.2463248485305 stress="0.0028140117841392556 -2.721067336234145e-07 -3.1555770577858786e-07 -2.721067336234145e-07 0.002818115832869555 9.576583493621792e-07 -3.1555770577858786e-07 9.576583493621792e-07 0.0024950281619386377" pbc="T T F"
C       -0.34465638       0.13126686       9.99837659        2       0.00130985      -0.00040785       0.00097330
Ti      -0.34258129       1.87886946      11.30980360        0       0.00162564      -0.00201518       0.00295075
Ti       1.17659968       1.00378057       8.70233429        0       0.00239778      -0.00136506       0.00266636
O       -0.33569452       1.87963229       7.77054063        1      -0.00291173      -0.00013719      -0.00224454
O        1.16885107       1.00642404      12.23159545        3      -0.00013611      -0.00084838      -0.00448522
C       -1.85444590       2.74973502       9.99753621        2      -0.00058830       0.00037416       0.00088410
Ti      -1.85449850       4.49271659      11.31214384        0      -0.00101218      -0.00114617       0.00416625
Ti      -0.33875344       3.62933810       8.69949067        0       0.00024656       0.00098198       0.00596753
O       -1.85433548       4.50688204       7.77753305        1      -0.00091939       0.00000455      -0.00142552
O       -0.34146223       3.62254589      12.23159545        3      -0.00075970       0.00026692       0.00399897
C       -3.36986894       5.37546506      10.00622659        2       0.00079040      -0.00140463      -0.00116452
Ti      -3.36215552       7.13416715      11.34810636        0       0.00221178      -0.00138454       0.00097008
Ti      -1.85474799       6.24978789       8.71122303        0       0.00051761       0.00304209       0.00253269
O       -3.36720911       7.12906059       7.78836514        1       0.00048107      -0.00058472      -0.00117426
O       -1.85504015       6.23564539      12.23159545        3       0.00006051      -0.00056542      -0.07225366
C       -4.88740618       8.00132982      10.00784503        2      -0.00150168       0.00116292       0.00029398
Ti      -4.89582718       9.75618773      11.31312610        0      -0.00144715       0.00102963      -0.00079932
Ti      -3.37159413       8.87668969       8.71530853        0       0.00050731      -0.00016471       0.00157737
O       -4.88052637       9.74868313       7.78069158        1      -0.00124333       0.00009011      -0.00335318
O       -3.39044587       8.88324709      12.23159545        3       0.00086829       0.00017681      -0.13211667
C        2.68840906       0.13003606      10.01163940        2      -0.00174966       0.00122762      -0.00027018
Ti       2.68744263       1.87483571      11.32492949        0       0.00247235       0.00222512       0.00147427
Ti       4.20535454       1.00303239       8.70942518        0      -0.00129293      -0.00185543       0.00386304
O        2.69282588       1.87696313       7.78054847        1       0.00019538      -0.00073072      -0.00211716
O        4.20502445       1.00619442      12.23159545        3       0.00113914      -0.00042372       0.02531573
C        1.17415141       2.75311329      10.00337942        2       0.00132879       0.00157281      -0.00282736
Ti       1.17386190       4.50175457      11.32167216        0      -0.00128046      -0.00078290       0.00088746
Ti       2.69067554       3.62751329       8.70243045        0      -0.00115794      -0.00268896       0.00087361
O        1.17708020       4.50436227       7.77774150        1      -0.00210485      -0.00157021      -0.00206464
O        2.68875289       3.62693668      12.23159545        3      -0.00046275      -0.00168528      -0.00577871
C       -0.33973611       5.37583546      10.00632998        2       0.00193473      -0.00140532      -0.00081724
Ti      -0.34846421       7.13435494      11.34832096        0       0.00271897      -0.00043326       0.00172397
Ti       1.17329535       6.25232534       8.70525116        0      -0.00269203       0.00083944       0.00814206
O       -0.34217057       7.12900269       7.78829901        1      -0.00094007       0.00050722       0.00000072
O        1.17612848       6.25018680      12.23159545        3       0.00088162      -0.00109394       0.00781212
C       -1.85520766       8.00136037      10.02930302        2       0.00210646      -0.00089837       0.00105848
Ti      -1.85522990       9.73396372      11.36137193        0       0.00377848       0.00001011      -0.00080645
Ti      -0.33758735       8.87695046       8.71527416        0      -0.00229463      -0.00158219       0.00197489
O       -1.85481658       9.74825692       7.79291792        1       0.00060988      -0.00030977      -0.00241316
O       -0.31968499       8.88324191      12.23159545        3       0.00064839       0.00110368      -0.13872480
C        5.72189246       0.12987156      10.01152232        2       0.00291125       0.00096475      -0.00287206
Ti       5.72286982       1.87414761      11.32477458        0      -0.00073858       0.00143896       0.00161024
Ti       7.23455096       1.00341599       8.70177117        0       0.00075393       0.00100450       0.00386169
O        5.71794664       1.87655656       7.78022959        1      -0.00010886      -0.00061046      -0.00323497
O        7.24136910       1.00554218      12.23159545        3       0.00164773       0.00193808      -0.00769918
C        4.20571080       2.75224306      10.00711088        2      -0.00090769       0.00240441      -0.00174536
Ti       4.20621843       4.50090826      11.31772374        0      -0.00218322       0.00062057       0.00201115
Ti       5.72052958       3.62706474       8.70117972        0      -0.00069954       0.00019239       0.00584171
O        4.20536913       4.50154241       7.77653929        1       0.00155884      -0.00102465      -0.00407038
O        5.72289106       3.62602812      12.23159545        3      -0.00233637       0.00168144      -0.00713951
C        2.69075661       5.37578141      10.00560723        2      -0.00046065      -0.00038257      -0.00069295
Ti       2.69037929       7.12794356      11.32101564        0      -0.00036685       0.00064582       0.00198937
Ti       4.20543245       6.25057829       8.70108858        0       0.00125914       0.00191176      -0.00051225
O        2.68914192       7.12419377       7.77819784        1      -0.00021108       0.00215825      -0.00200927
O        4.20538583       6.25179412      12.23159545        3       0.00044332       0.00076352      -0.00200039
C        1.17769445       8.00154129      10.00758612        2       0.00233019      -0.00086187      -0.00055287
Ti       1.18565327       9.75534125      11.31234830        0       0.00128806       0.00252311       0.00239968
Ti       2.68965645       8.87437771       8.69929165        0      -0.00096758      -0.00084301       0.00635841
O        1.17140344       9.74834212       7.78009561        1      -0.00037995       0.00044675      -0.00265639
O        2.69494883       8.87758377      12.23159545        3      -0.00080160       0.00021587      -0.01376929
C        8.75515311       0.13092586       9.99825622        2      -0.00036455       0.00034067       0.00028914
Ti       8.75235330       1.87820125      11.30930846        0       0.00089334       0.00049709       0.00527940
Ti      10.26596692       1.00332932       8.68520132        0      -0.00267068       0.00143216       0.00589262
O        8.74712235       1.87913628       7.77006391        1       0.00143487       0.00037414       0.00015705
O       10.26518477       1.00605929      12.23159545        3      -0.00022063      -0.00028873      -0.01684950
C        7.23709546       2.75247633      10.00262361        2      -0.00250070       0.00163769       0.00024245
Ti       7.23773014       4.50108572      11.32118380        0      -0.00185591       0.00134355       0.00178890
Ti       8.75011618       3.62882951       8.69914461        0      -0.00078345      -0.00021193       0.00563332
O        7.23419060       4.50384586       7.77733137        1       0.00089232       0.00071177      -0.00231356
O        8.75270546       3.62224257      12.23159545        3      -0.00085575      -0.00155876       0.00101959
C        5.72057790       5.37533125      10.00542834        2      -0.00284265      -0.00006769      -0.00150076
Ti       5.72039110       7.12844756      11.32097486        0      -0.00129497      -0.00303969       0.00123699
Ti       7.23747675       6.25179792       8.70565901        0       0.00054794       0.00227495       0.00550452
O        5.72176387       7.12448476       7.77834155        1       0.00016227      -0.00022930      -0.00194535
O        7.23396429       6.24947601      12.23159545        3       0.00120424       0.00122618       0.00941305
C        4.20538154       8.00134536      10.00268822        2      -0.00098974      -0.00263043      -0.00263942
Ti       4.20469488       9.75285649      11.30916251        0       0.00224443      -0.00083834       0.00295124
Ti       5.72122359       8.87436421       8.69956477        0       0.00205854      -0.00190743       0.00476664
O        4.20554079       9.74668222       7.76978078        1      -0.00076471       0.00216208      -0.00155011
O        5.71514930       8.87781987      12.23159545        3       0.00122622       0.00051662      -0.01257535
C        0.57348835      -0.13133951      16.39606261       10      -0.00086554      -0.00098365       0.02653084
C        1.78028696       0.56961646      16.38077056       10       0.00368432      -0.00184443       0.01663793
C       -0.63705726       1.96587436      16.40138331       10       0.00060339      -0.00086323       0.03411408
C        0.57429271       2.66539681      16.38367288       10      -0.00047446      -0.00276200      -0.00937644
C       -1.84768651       4.06264227      16.39606261       10      -0.00119959      -0.00283318       0.03968988
C       -0.63728565       4.75722373      16.38077056       10      -0.00192689       0.00035155       0.00068847
C       -3.05391901       6.16465255      16.33295186       10      -0.00233748      -0.00170669       0.08638435
C       -1.84760551       6.84460289      16.29112964       10      -0.00191051       0.00082638      -0.25881376
C       -4.26867328       8.26837839      16.33295186       10      -0.00064985      -0.00018785       0.08463676
C       -3.07674638       8.97280236      16.29112964       10       0.00478304       0.00115710      -0.25794339
C        2.99746093      -0.13829426      16.33295186       10       0.00212500      -0.00159017       0.09193391
C        4.21210624       0.56752040      16.30087318       10      -0.00124410       0.00164884      -0.04854106
C        1.78667618       1.96678365      16.36972759       10      -0.00091089      -0.00336550       0.02122292
C        2.99849563       2.66573486      16.34781318       10      -0.00261463      -0.00040947       0.01761797
C        0.57571739       4.06405693      16.36972759       10      -0.00226599      -0.00152826       0.01881664
C        1.78622477       4.76413300      16.34781318       10      -0.00155293      -0.00091485       0.01761323
C       -0.64123491       6.16444249      16.33295186       10      -0.00233712       0.00149743       0.08562269
C        0.57731685       6.86322401      16.30087318       10       0.00023032      -0.00121460      -0.01972961
C       -1.84801404       8.26331144      15.83832398       10       0.00159631       0.00016868       0.25693893
C       -0.61937991       8.97267286      16.29112964       10       0.00152538      -0.00007753      -0.25728040
C        5.42659418      -0.13851897      16.33295186       10      -0.00180581       0.00029936       0.09274323
C        6.64379796       0.56925851      16.38077056       10      -0.00183451       0.00098250       0.01689388
C        4.21224389       1.96266791      16.33320689       10      -0.00146396       0.00169194      -0.01513272
C        5.42606221       2.66559587      16.34781318       10       0.00065039       0.00117381       0.01805297
C        3.00013980       4.06537268      16.34513157       10      -0.00159664      -0.00006620      -0.01951806
C        4.21244596       4.76534776      16.34013080       10      -0.00080260      -0.00000812       0.03284277
C        1.78531734       6.16593339      16.33320689       10       0.00052430      -0.00020640      -0.02951829
C        3.00032375       6.86586482      16.34781318       10       0.00105594       0.00010934       0.04153354
C        0.57272299       8.26822981      16.33295186       10       0.00154321      -0.00093402       0.08493819
C        1.79411453       8.96805713      16.38077056       10       0.00187642       0.00086480       0.02714007
C        7.85059501      -0.13169433      16.39606261       10       0.00049772       0.00230656       0.02619607
C        9.06328791       0.56851996      16.40300113       10       0.00055557       0.00327517      -0.00015106
C        6.63763562       1.96642474      16.36972759       10       0.00184078       0.00062797       0.02099751
C        7.84996514       2.66526385      16.38367288       10       0.00307413      -0.00150854      -0.00893083
C        5.42469871       4.06525908      16.34513157       10      -0.00034180       0.00138222      -0.02006503
C        6.63861624       4.76409225      16.34781318       10      -0.00067359       0.00019602       0.01886993
C        4.21242030       6.16450912      16.34513157       10      -0.00124438      -0.00044911      -0.03689743
C        5.42443108       6.86590869      16.34781318       10      -0.00260730       0.00042105       0.04213892
C        3.00090574       8.26468837      16.36972759       10       0.00216489       0.00060723       0.00596767
C        4.21207134       8.96527951      16.38367288       10       0.00106817       0.00298674       0.00459663
C       10.27208054      -0.13192613      16.40138331       10      -0.00149908       0.00151644       0.01786186
C       11.48070017       0.56877805      16.40300113       10       0.00404187       0.00068314      -0.00008784
C        9.06108960       1.96566267      16.40138331       10       0.00297407       0.00079518       0.03408520
C       10.27201044       2.66263982      16.40300113       10       0.00254496      -0.00212519       0.00039191
C        7.84908343       4.06404555      16.36972759       10      -0.00138187      -0.00233286       0.01878571
C        9.06207023       4.75741984      16.38077056       10      -0.00074660      -0.00330636       0.00132684
C        6.63948704       6.16593445      16.33320689       10      -0.00330615       0.00033192      -0.03009525
C        7.84735229       6.86335090      16.30087318       10      -0.00213099      -0.00117840      -0.01851601
C        5.42330095       8.26476253      16.36972759       10      -0.00092174       0.00003297       0.00587575
C        6.62986823       8.96830040      16.38077056       10       0.00377715       0.00128293       0.02727692
O       -1.84778558       8.26044585      14.51393199       11      -0.00197731      -0.00088411       0.00844363
