131
Lattice="12.12 0.0 0.0 -6.06 10.496227893867395 0.0 0.0 0.0 40.0" Properties=species:S:1:pos:R:3:tags:I:1:forces:R:3 energy=-1205.3073680570812 stress="0.0028517110037885405 9.327801967929513e-08 -3.177461393701924e-06 9.327801967929513e-08 0.002852651781632169 1.9380704566707875e-06 -3.177461393701924e-06 1.9380704566707875e-06 0.0022824292957541827" pbc="T T F"
C       -0.00426809       0.00240324      10.00062643        2      -0.00075428       0.00030206      -0.00098817
Ti      -0.00136187       1.75084009      11.30744319        0      -0.00095176      -0.00009271      -0.00377344
Ti       1.51468262       0.87536386       8.69782233        0      -0.00093581       0.00004589       0.00164988
O        0.00199791       1.74944907       7.76914974        1       0.00032493       0.00053088      -0.00164256
O        1.51245019       0.87773343      12.23159545        3      -0.00073888       0.00058926      -0.02248434
C       -1.51521036       2.62357160      10.00110996        2      -0.00027603       0.00025117      -0.00040613
Ti      -1.51598846       4.36822107      11.30450772        0       0.00017340       0.00169515       0.00109557
Ti       0.00103232       3.50022412       8.69339881        0      -0.00075843       0.00004724       0.00127329
O       -1.51524360       4.37740742       7.77205800        1      -0.00038287       0.00126191       0.00042203
O        0.00045405       3.49843154      12.23159545        3      -0.00078970      -0.00093966      -0.02813815
C       -3.03069896       5.24708788      10.00498546        2      -0.00077540       0.00013787       0.00115765
Ti      -3.02623557       7.00921002      11.34209335        0      -0.00047493       0.00468816       0.00208409
Ti      -1.51557088       6.12035720       8.70235942        0      -0.00062692       0.00080504       0.00211202
O       -3.02828095       7.00083065       7.78337925        1      -0.00072280       0.00030245       0.00112578
O       -1.51429014       6.11077733      12.23159545        3      -0.00024688      -0.00054952      -0.05115156
C       -4.54780075       7.87102235      10.01107541        2      -0.00086287       0.00030029       0.00037206
Ti      -4.54976414       9.62418797      11.31019403        0       0.00515893      -0.00308994       0.00714085
Ti      -3.03237689       8.74797188       8.70941515        0      -0.00020520       0.00019131       0.00145123
O       -4.54211432       9.62024663       7.77766583        1       0.00036387      -0.00026998       0.00086121
O       -3.04901769       8.75422951      12.23159545        3      -0.00024287      -0.00006448      -0.42535820
C        3.02950555       0.00220984      10.01327953        2      -0.00069182       0.00038550       0.00020728
Ti       3.02945261       1.74574878      11.31575182        0      -0.00034754      -0.00041234      -0.00042542
Ti       4.54667805       0.87487734       8.70148814        0      -0.00071037       0.00055571       0.00178641
O        3.03106169       1.74687430       7.77562539        1      -0.00056980       0.00020730      -0.00044784
O        4.54694949       0.87809868      12.23159545        3      -0.00034853       0.00244116      -0.00787240
C        1.51426037       2.62632546      10.00212163        2      -0.00096337      -0.00038570       0.00051843
Ti       1.51526511       4.37258972      11.30911839        0      -0.00103496      -0.00002088      -0.00158167
Ti       3.02998680       3.49856715       8.69395525        0      -0.00004051       0.00069947       0.00108048
O        1.51567475       4.37483664       7.77020335        1      -0.00038257       0.00025142      -0.00058674
O        3.03052726       3.49805083      12.23159545        3      -0.00041569       0.00096497      -0.01418529
C        0.00101870       5.24701207      10.00275721        2      -0.00067047      -0.00000128       0.00128237
Ti      -0.00344350       6.99896585      11.32310117        0      -0.00180689       0.00116988       0.00101730
Ti       1.51283944       6.12408543       8.69554444        0       0.00039948      -0.00023303       0.00157070
O       -0.00432952       7.00027730       7.77916853        1      -0.00023573       0.00017005       0.00094483
O        1.51616706       6.12215768      12.23159545        3       0.00049604      -0.00021911       0.00424890
C       -1.51559322       7.87260226      10.02728045        2      -0.00009636       0.00005983      -0.00049002
Ti      -1.52493946       9.61071617      11.34931626        0      -0.00405481      -0.00194569       0.00125736
Ti       0.00206992       8.74856946       8.70329541        0      -0.00086824       0.00017424       0.00206085
O       -1.51681214       9.61879574       7.78498912        1      -0.00052187       0.00050888       0.00114661
O        0.01168909       8.75140164      12.23159545        3       0.00059649       0.00022691      -0.05431201
C        6.06060855       0.00046009      10.00698424        2      -0.00047268       0.00045083       0.00137826
Ti       6.06226311       1.74909764      11.30907317        0      -0.00076573      -0.00012174       0.00036735
Ti       7.57298976       0.87446072       8.69639475        0       0.00026364       0.00011306       0.00103475
O        6.05807613       1.74788478       7.77190133        1      -0.00058701      -0.00045976       0.00041582
O        7.57866356       0.87737479      12.23159545        3       0.00033060       0.00003093      -0.00934833
C        4.54642647       2.62538337      10.00303422        2      -0.00003619       0.00029573       0.00018611
Ti       4.54616966       4.37280036      11.30941765        0       0.00021382      -0.00020950      -0.00238602
Ti       6.05948816       3.49885667       8.69258664        0       0.00013469      -0.00007357       0.00185764
O        4.54449639       4.37343907       7.76951266        1      -0.00000522      -0.00003702      -0.00079692
O        6.06016024       3.49851619      12.23159545        3       0.00014815       0.00031899       0.05177721
C        3.03099448       5.24776193      10.00353044        2      -0.00022462       0.00024330      -0.00064845
Ti       3.03104113       6.99805390      11.30934396        0      -0.00038904       0.00089414      -0.00175657
Ti       4.54500135       6.12273138       8.69337158        0      -0.00067448      -0.00039332       0.00101967
O        3.02897641       6.99637182       7.77012507        1      -0.00041397       0.00019700      -0.00066980
O        4.54623526       6.12325628      12.23159545        3      -0.00086751      -0.00015835      -0.00970602
C        1.51663018       7.87197728      10.00318754        2      -0.00020343       0.00056865       0.00127648
Ti       1.51982081       9.62550352      11.30528916        0      -0.00161121      -0.00112518       0.00134611
Ti       3.02929353       8.74538214       8.69324699        0      -0.00030018       0.00060952       0.00125126
O        1.51127165       9.62004252       7.77283657        1      -0.00115501      -0.00020160       0.00044412
O        3.03200036       8.74668630      12.23159545        3       0.00076973       0.00096697      -0.02338176
C        9.09087687       0.00053328      10.00119059        2      -0.00032161       0.00019368      -0.00037097
Ti       9.09026523       1.74992832      11.30509191        0      -0.00022879      -0.00002006      -0.00456808
Ti      10.60449268       0.87492576       8.68749571        0       0.00066880      -0.00024338       0.00249649
O        9.08770274       1.75026829       7.76967263        1      -0.00019825       0.00016997      -0.00246903
O       10.60366930       0.87567739      12.23159545        3      -0.00042910       0.00031473      -0.03904884
C        7.57500919       2.62435524      10.00188606        2       0.00067398      -0.00039393       0.00024855
Ti       7.57560045       4.37222897      11.30949001        0       0.00001313       0.00038678      -0.00039684
Ti       9.08917224       3.50050904       8.69511578        0       0.00009959      -0.00006775       0.00139077
O        7.57488487       4.37524412       7.77105163        1       0.00002744       0.00078672       0.00033234
O        9.08958858       3.49608283      12.23159545        3       0.00024477      -0.00025776      -0.01268835
C        6.05962080       5.24609305      10.00257545        2      -0.00024651      -0.00001724       0.00016462
Ti       6.06286363       6.99988570      11.31475476        0       0.00008970       0.00037871      -0.00082337
Ti       7.57576837       6.12140836       8.69987176        0      -0.00075463       0.00034774       0.00171024
O        6.06218425       6.99779777       7.77452115        1      -0.00047223       0.00032437      -0.00058815
O        7.57361023       6.12057202      12.23159545        3      -0.00219976      -0.00078338       0.00078820
C        4.54288932       7.87164134      10.00159128        2      -0.00015718       0.00091048       0.00047185
Ti       4.54369405       9.62212712      11.30609140        0      -0.00053358       0.00113191      -0.00364947
Ti       6.05925538       8.74673896       8.69684335        0      -0.00054704       0.00076634       0.00154760
O        4.54559893       9.62005313       7.76869673        1      -0.00024830      -0.00047281      -0.00167172
O        6.05650343       8.74692632      12.23159545        3      -0.00107936       0.00019241      -0.01947329
C        0.04114623       0.06975162      16.68027314       10      -0.00130169      -0.00089898       0.03653013
C        1.24977304       0.77037051      16.66498109       10       0.00415628      -0.00060597       0.04288304
C       -1.16946795       2.16739842      16.68559384       10      -0.00004708      -0.00025946       0.02436670
C        0.04273743       2.86774668      16.66788341       10       0.00029561      -0.00148189       0.01277874
C       -2.38060900       4.26420952      16.68027314       10      -0.00049282      -0.00209738       0.01657052
C       -1.17002687       4.96063227      16.66498109       10       0.00001158      -0.00026839       0.01823209
C       -3.58683503       6.36703210      16.61716239       10       0.00014901      -0.00098606       0.04627863
C       -2.38043263       7.04730927      16.57534017       10       0.00024437       0.00139003      -0.15183028
C       -4.80018543       8.46979683      16.61716239       10      -0.00187609      -0.00103123       0.07340183
C       -3.60725281       9.17374279      16.57534017       10       0.00480496      -0.00021885      -0.17189518
C        2.46578280       0.06278223      16.61716239       10       0.00214607      -0.00294101       0.07891585
C        3.68004345       0.76873906      16.58508371       10       0.00000963      -0.00007173      -0.03247460
C        1.25520453       2.16777558      16.65393812       10       0.00050907      -0.00166562       0.02522181
C        2.46704374       2.86661246      16.63202371       10      -0.00040946       0.00022572       0.00448422
C        0.04361529       4.26564652      16.65393812       10      -0.00013501      -0.00088343       0.00953168
C        1.25438006       4.96665894      16.63202371       10       0.00005825      -0.00036986       0.01359626
C       -1.17404215       6.36673522      16.61716239       10      -0.00117134       0.00029075       0.05613031
C        0.04366224       7.06604669      16.58508371       10      -0.00009316      -0.00125400      -0.01647102
C       -2.37881016       8.46499694      16.12253451       10       0.00111900      -0.00001140       0.22502374
C       -1.15221325       9.17479643      16.57534017       10       0.00031628      -0.00067849      -0.14816551
C        4.89362784       0.06379259      16.61716239       10       0.00038260      -0.00052900       0.04783622
C        6.10984842       0.77078215      16.66498109       10       0.00071871       0.00010308       0.03091977
C        3.67981527       2.16443003      16.61741742       10      -0.00022884       0.00026522      -0.00271074
C        4.89295804       2.86635993      16.63202371       10       0.00069841       0.00028069       0.01918458
C        2.46809856       4.26658049      16.62934210       10      -0.00022403       0.00014971      -0.00086037
C        3.68012756       4.96665437      16.62434133       10      -0.00064280       0.00023678      -0.00131208
C        1.25314804       6.36755119      16.61741742       10       0.00043838       0.00005148      -0.00314766
C        2.46727151       7.06713675      16.63202371       10       0.00048897       0.00071490       0.01154499
C        0.04027977       8.47024910      16.61716239       10       0.00074170      -0.00100636       0.06109425
C        1.26008440       9.16968809      16.66498109       10       0.00109126       0.00099337       0.01488802
C        7.31780018       0.07023938      16.68027314       10       0.00250852       0.00139340       0.01376631
C        8.52947151       0.77001702      16.68721166       10       0.00236291       0.00169739       0.02343048
C        6.10429629       2.16827583      16.65393812       10       0.00145559       0.00003726       0.01726013
C        7.31629366       2.86721818      16.66788341       10       0.00142577      -0.00051024       0.02727688
C        4.89180615       4.26707758      16.62934210       10      -0.00076120       0.00085838       0.00484336
C        6.10557320       4.96642103      16.63202371       10      -0.00104070       0.00046717       0.01764899
C        3.68027859       6.36607127      16.62934210       10      -0.00057213      -0.00022992      -0.00434479
C        4.89230415       7.06712685      16.63202371       10      -0.00046670      -0.00064831       0.00623221
C        2.46877338       8.46607446      16.65393812       10       0.00136719       0.00070682       0.00968054
C        3.67896962       9.16568864      16.66788341       10       0.00130696       0.00072466       0.00861084
C        9.73935815       0.06948805      16.68559384       10      -0.00049967      -0.00140984       0.02446034
C       10.94823840       0.76988395      16.68721166       10       0.00433226       0.00014680       0.03573840
C        8.52791828       2.16757145      16.68559384       10       0.00123066      -0.00005963       0.02039665
C        9.73899928       2.86478354      16.68721166       10       0.00128347      -0.00208972       0.02438890
C        7.31586757       4.26636693      16.65393812       10      -0.00171379      -0.00082806       0.01544101
C        8.52882280       4.96031441      16.66498109       10       0.00063533      -0.00247287       0.03155331
C        6.10685557       6.36790987      16.61741742       10      -0.00072286       0.00006013      -0.00622536
C        7.31549715       7.06555785      16.58508371       10       0.00059593      -0.00163710      -0.03085736
C        4.89155503       8.46581950      16.65393812       10      -0.00035847      -0.00164510       0.02204851
C        6.09879361       9.16884690      16.66498109       10       0.00392155       0.00115396       0.03695217
O       -2.37052575       8.45999561      14.80429358       11      -0.00061183       0.00054594       0.00006589
