130
Lattice="12.12 0.0 0.0 -6.06 10.496227893867395 0.0 0.0 0.0 40.0" Properties=species:S:1:pos:R:3:tags:I:1:forces:R:3 energy=-1201.7067527088632 stress="0.0028451877953607593 -1.3072987201244968e-08 5.889562415270168e-07 -1.3072987201244968e-08 0.0028450445442570124 1.1925099145622687e-06 5.889562415270168e-07 1.1925099145622687e-06 0.0027813149583558903" pbc="T T F"
C        0.00007073       0.00012149      10.00459401        2       0.00019546       0.00034440      -0.00378323
Ti       0.00014571       1.74923920      11.30195376        0      -0.00002851      -0.00082727       0.00500469
Ti       1.51509454       0.87479028       8.71524990        0      -0.00014468      -0.00021192      -0.00181113
O       -0.00002006       1.74951770       7.77731016        1       0.00011099       0.00029745       0.00172363
O        1.51538682       0.87488810      12.23008024        3       0.00088985       0.00099220      -0.17100388
C       -1.51481377       2.62400352      10.00489174        2       0.00021479       0.00067077      -0.00356136
Ti      -1.51434701       4.37374003      11.30274196        0      -0.00028632      -0.00009693       0.00535195
Ti       0.00002331       3.49866788       8.71524785        0      -0.00022413       0.00000812      -0.00118066
O       -1.51524470       4.37358581       7.77818762        1       0.00023861       0.00003781       0.00147027
O        0.00024296       3.49927849      12.23008024        3       0.00061529       0.00128030      -0.17486910
C       -3.02977380       5.24831232      10.00579915        2       0.00020956       0.00010991      -0.00362335
Ti      -3.02951468       6.99809877      11.30325979        0      -0.00028287       0.00064467       0.00564801
Ti      -1.51485831       6.12290800       8.71634727        0      -0.00026158       0.00024354      -0.00120054
O       -3.03006307       6.99729249       7.77832584        1       0.00013906       0.00018732       0.00140601
O       -1.51432605       6.12335264      12.23008024        3       0.00056760       0.00014351      -0.16692785
C       -4.54497884       7.87246894      10.00503835        2       0.00023015      -0.00012954      -0.00374622
Ti      -4.54503945       9.62188402      11.30170617        0      -0.00009243      -0.00010617       0.00560186
Ti      -3.03003523       8.74692308       8.71540440        0      -0.00006897       0.00017186      -0.00137772
O       -4.54489772       9.62145339       7.77738597        1       0.00008354       0.00025894       0.00173912
O       -3.02938706       8.74713671      12.23008024        3       0.00089207       0.00007175      -0.17400102
C        3.02981345       0.00012401      10.00479124        2       0.00057414       0.00044809      -0.00343650
Ti       3.02984955       1.74951690      11.30205184        0      -0.00086402      -0.00113827       0.00519275
Ti       4.54518944       0.87485512       8.71614176        0       0.00010028      -0.00001826      -0.00126312
O        3.03040014       1.74963297       7.77791542        1       0.00000896       0.00029750       0.00150609
O        4.54508664       0.87404910      12.23008024        3       0.00054720       0.00062450      -0.18827006
C        1.51491799       2.62393046      10.00474087        2       0.00046771       0.00090726      -0.00294614
Ti       1.51451299       4.37350747      11.30286201        0      -0.00066984      -0.00020006       0.00445513
Ti       3.03022917       3.49889371       8.71611150        0       0.00015582      -0.00004121      -0.00097057
O        1.51525917       4.37362069       7.77814707        1       0.00013302       0.00006055       0.00124746
O        3.02944547       3.49926261      12.23008024        3       0.00036235       0.00107329      -0.18873232
C        0.00008794       5.24818691      10.00524490        2       0.00047112       0.00050268      -0.00279930
Ti       0.00040381       6.99804408      11.30596932        0      -0.00067288       0.00051378       0.00433517
Ti       1.51501235       6.12286385       8.71647026        0       0.00002717       0.00043244      -0.00102947
O        0.00006814       6.99760461       7.77865518        1       0.00023381       0.00010337       0.00093027
O        1.51489353       6.12312519      12.23008024        3      -0.00006319      -0.00009209      -0.15917537
C       -1.51494291       7.87237420      10.00535216        2       0.00068045      -0.00007906      -0.00327590
Ti      -1.51533703       9.62150033      11.30330820        0      -0.00055523      -0.00037136       0.00538274
Ti       0.00004114       8.74691074       8.71659300        0       0.00005880       0.00030096      -0.00141095
O       -1.51477505       9.62171923       7.77823781        1       0.00012781       0.00026973       0.00141611
O        0.00006741       8.74707458      12.23008024        3       0.00037056      -0.00010388      -0.15497820
C        6.06005306       0.00008826      10.00568836        2       0.00000942       0.00012950      -0.00349979
Ti       6.05992639       1.74860059      11.30596295        0       0.00036710      -0.00044825       0.00558989
Ti       7.57488038       0.87483767       8.71643521        0       0.00025900       0.00020754      -0.00154190
O        6.06008439       1.74978931       7.77902107        1       0.00002233       0.00016237       0.00111201
O        7.57508352       0.87414001      12.23008024        3      -0.00062945       0.00005857      -0.18651644
C        4.54490315       2.62406267      10.00626661        2       0.00006118       0.00051299      -0.00319936
Ti       4.54417006       4.37383373      11.30623332        0       0.00049120       0.00051731       0.00449730
Ti       6.06003915       3.49882576       8.71836001        0       0.00039383       0.00006943      -0.00201606
O        4.54536964       4.37339245       7.77906075        1      -0.00009428       0.00014453       0.00091714
O        6.06007297       3.49890314      12.23008024        3      -0.00023702       0.00029099      -0.16688922
C        3.02996053       5.24825850      10.00569691        2      -0.00005104       0.00000941      -0.00276136
Ti       3.03000449       6.99807999      11.30384438        0       0.00050343       0.00140391       0.00507009
Ti       4.54503829       6.12265431       8.71661094        0       0.00040204       0.00044100      -0.00114729
O        3.03014092       6.99736846       7.77844755        1       0.00007640       0.00012714       0.00124756
O        4.54448456       6.12331581      12.23008024        3      -0.00074504      -0.00070035      -0.18433081
C        1.51512399       7.87237825      10.00549513        2      -0.00020637      -0.00046262      -0.00304255
Ti       1.51550983       9.62161950      11.30384433        0       0.00060193       0.00033679       0.00573304
Ti       3.03006711       8.74691455       8.71566543        0       0.00018213       0.00044419      -0.00141260
O        1.51492074       9.62175556       7.77841003        1       0.00012958       0.00015323       0.00143832
O        3.02977804       8.74705960      12.23008024        3      -0.00078332      -0.00068507      -0.17007178
C        9.09028917       0.00014731      10.00501555        2      -0.00037141      -0.00004170      -0.00382541
Ti       9.09039414       1.74961735      11.30247458        0       0.00080983      -0.00047216       0.00638452
Ti      10.60493959       0.87481041       8.71531371        0       0.00005983       0.00007628      -0.00202789
O        9.08966270       1.74966309       7.77813012        1       0.00011131       0.00012408       0.00164179
O       10.60474870       0.87485891      12.23008024        3      -0.00037442       0.00054563      -0.17384599
C        7.57514209       2.62410103      10.00645569        2      -0.00035190       0.00036755      -0.00389663
Ti       7.57548773       4.37378630      11.30667767        0       0.00073474       0.00060451       0.00567573
Ti       9.08981427       3.49893236       8.71641154        0       0.00006648       0.00002704      -0.00149670
O        7.57475406       4.37337111       7.77914493        1       0.00006045       0.00009348       0.00094896
O        9.09062028       3.49929647      12.23008024        3      -0.00013926       0.00054435      -0.18695117
C        6.06005527       5.24831505      10.00657062        2      -0.00029236      -0.00024604      -0.00363588
Ti       6.06017233       6.99798413      11.30287648        0       0.00073531       0.00155975       0.00573880
Ti       7.57504649       6.12261298       8.71665829        0       0.00016548       0.00033561      -0.00152273
O        6.06005337       6.99709946       7.77827350        1      -0.00004866       0.00018850       0.00150079
O        7.57575814       6.12330404      12.23008024        3       0.00008242      -0.00034239      -0.18347853
C        4.54517792       7.87248441      10.00510707        2      -0.00049192      -0.00049905      -0.00352002
Ti       4.54523896       9.62184113      11.30171951        0       0.00062569       0.00054896       0.00579999
Ti       6.06004219       8.74675684       8.71529416        0       0.00012891       0.00031302      -0.00186578
O        4.54492845       9.62149551       7.77750900        1       0.00001466       0.00014568       0.00182091
O        6.06006866       8.74686956      12.23008024        3      -0.00023382      -0.00077022      -0.17830285
C        0.04490709       0.06733605      15.74060656       10      -0.00444393      -0.00330120       0.07643746
C        1.25673302       0.76699295      15.74060656       10       0.00269925       0.00072720       0.05443549
C       -1.16718931       2.16660985      15.74060656       10       0.00082096      -0.00597527       0.06137128
C        0.04484805       2.86618068      15.74060656       10       0.00006887       0.00079482       0.05280462
C       -2.37903522       4.26577352      15.74060656       10       0.00045342      -0.00353523       0.05477781
C       -1.16696053       4.96555051      15.74060656       10       0.00046169       0.00071659       0.06459038
C       -3.59097039       6.36519673      15.74060656       10      -0.00042931      -0.00387958       0.05270132
C       -2.37883709       7.06490112      15.74060656       10      -0.00200723       0.00217185       0.06533857
C       -4.80315130       8.46434570      15.74060656       10      -0.00268002      -0.00169475       0.05922788
C       -3.59124379       9.16412685      15.74060656       10       0.00435978      -0.00134686       0.05344272
C        2.46885172       0.06736447      15.74060656       10      -0.00221514       0.00178794       0.05811257
C        3.68080984       0.76694184      15.74060656       10      -0.00291769      -0.00370428       0.04503444
C        1.25681417       2.16649306      15.74060656       10       0.00007808      -0.00345294       0.06160486
C        2.46863671       2.86615343      15.74060656       10      -0.00119873       0.00099216       0.04130145
C        0.04495792       4.26568317      15.74060656       10      -0.00137403      -0.00189604       0.03936672
C        1.25692482       4.96551713      15.74060656       10      -0.00057884       0.00133680       0.06646172
C       -1.16693047       6.36501744      15.74060656       10      -0.00590318      -0.00224674       0.04857285
C        0.04508719       7.06473107      15.74060656       10      -0.00196419       0.00027928       0.07044254
C       -2.37915453       8.46437996      15.74060656       10      -0.00149076       0.00123119       0.03844565
C       -1.16708702       9.16407181      15.74060656       10       0.00043973      -0.00619864       0.06892172
C        4.89290794       0.06731010      15.74060656       10      -0.00180892       0.00548264       0.04966092
C        6.10485360       0.76687332      15.74060656       10      -0.00248335      -0.00383075       0.05101701
C        3.68064361       2.16644364      15.74060656       10       0.00162973      -0.00088240       0.05817639
C        4.89236041       2.86620594      15.74060656       10       0.00119686      -0.00207388       0.05424487
C        2.46885889       4.26565936      15.74060656       10       0.00181208       0.00007816       0.05322994
C        3.68051421       4.96571438      15.74060656       10      -0.00194920      -0.00070295       0.05346963
C        1.25712568       6.36494855      15.74060656       10      -0.00133925       0.00137545       0.04915219
C        2.46891423       7.06492450      15.74060656       10      -0.00204884       0.00018179       0.06907903
C        0.04485894       8.46428177      15.74060656       10       0.00229269       0.00341151       0.05078675
C        1.25679535       9.16406219      15.74060656       10       0.00147325      -0.00589597       0.07060721
C        7.31689649       0.06730710      15.74060656       10      -0.00075924       0.00561087       0.04774981
C        8.52895456       0.76691013      15.74060656       10       0.00142941      -0.00159276       0.04729487
C        6.10466798       2.16651979      15.74060656       10       0.00161671      -0.00110080       0.06773305
C        7.31693052       2.86612615      15.74060656       10       0.00578294       0.00184138       0.05980240
C        4.89266942       4.26597546      15.74060656       10       0.00026716      -0.00204489       0.06859103
C        6.10481618       4.96589389      15.74060656       10       0.00128446       0.00149908       0.06259990
C        3.68092518       6.36515455      15.74060656       10       0.00078078      -0.00147314       0.04876187
C        4.89282192       7.06499938      15.74060656       10      -0.00024696       0.00298834       0.04540754
C        2.46886086       8.46436429      15.74060656       10       0.00247233       0.00318008       0.03685307
C        3.68087125       9.16414668      15.74060656       10       0.00203029      -0.00231832       0.05417491
C        9.74101631       0.06742819      15.74060656       10      -0.00476543       0.00057563       0.05586934
C       10.95299676       0.76706656      15.74060656       10       0.00255319       0.00140649       0.05038290
C        8.52880770       2.16646794      15.74060656       10       0.00161441      -0.00297823       0.06348894
C        9.74096795       2.86617107      15.74060656       10       0.00017073       0.00351180       0.03918860
C        7.31703397       4.26595880      15.74060656       10      -0.00078271      -0.00126839       0.06757617
C        8.52930141       4.96572554      15.74060656       10      -0.00055452       0.00291124       0.05726693
C        6.10489696       6.36525513      15.74060656       10      -0.00053743      -0.00103158       0.06779208
C        7.31703800       7.06497848      15.74060656       10      -0.00095339       0.00537939       0.04111187
C        4.89295750       8.46436547      15.74060656       10      -0.00314739      -0.00117084       0.05711771
C        6.10483190       9.16413916      15.74060656       10       0.00425493       0.00272862       0.04706564
