131
Lattice="12.12 0.0 0.0 -6.06 10.496227893867395 0.0 0.0 0.0 40.0" Properties=species:S:1:pos:R:3:tags:I:1:forces:R:3 energy=-1203.7161598055354 stress="0.002755617185913122 1.8924868366141623e-07 3.568984350685335e-07 1.8924868366141623e-07 0.0027554041392165232 7.739046291213856e-07 3.568984350685335e-07 7.739046291213856e-07 0.0030025346565419365" pbc="T T F"
C       -0.34753663      -0.44805990       9.95952851        2      -0.00015345      -0.00070154       0.00232214
Ti      -0.34867836       1.30657311      11.28580365        0       0.00084075       0.00264606      -0.00072974
Ti       1.17401768       0.42810850       8.71425447        0       0.00000414       0.00074390       0.00074527
O       -0.32148749       1.29077566       7.77020954        1      -0.00105790       0.00214287       0.00011989
O        1.15405980       0.44046775      12.23159545        3      -0.00288569       0.00101176      -0.19072993
C       -1.85115325       2.17419752       9.95740595        2      -0.00055107       0.00016272       0.00310392
Ti      -1.85074317       3.90954596      11.28622875        0      -0.00193009       0.00167895       0.00038334
Ti      -0.33168681       3.05180057       8.68362965        0      -0.00247548      -0.00245875       0.00265283
O       -1.85149561       3.94159787       7.77046860        1       0.00084341      -0.00275796      -0.00140658
O       -0.33439354       3.04954269      12.23159545        3      -0.00122766       0.00458274      -0.24898551
C       -3.37044456       4.78807940       9.95984915        2      -0.00069869       0.00026465       0.00097289
Ti      -3.37227138       6.51820308      11.28996712        0       0.00120289       0.00157709      -0.00104757
Ti      -1.85162103       5.66737288       8.71475968        0       0.00192036       0.00226159      -0.00126297
O       -3.34806887       6.56681390       7.79800275        1       0.00117178       0.00352098      -0.00620979
O       -1.85107238       5.64485662      12.23159545        3      -0.00146341      -0.00415204      -0.19094349
C       -4.90631319       7.40837091       9.94113640        2      -0.00265568      -0.00103258      -0.00088815
Ti      -4.91090350       9.18295194      11.29015411        0       0.00163979      -0.00358868      -0.00295919
Ti      -3.37476808       8.29250432       8.75601211        0       0.00105176       0.00009517      -0.00001070
O       -4.85541545       9.17843049       7.79726092        1      -0.00128576       0.00179877      -0.00156497
O       -3.57315271       8.17901382      12.23159545        3       0.00178751      -0.00355180      -0.54735248
C        2.71537770      -0.46132774      10.06761876        2       0.00251719       0.00007467      -0.00313656
Ti       2.67093868       1.32189643      11.28953868        0      -0.00344225       0.00089362      -0.00347034
Ti       4.20819207       0.43425886       8.75550587        0       0.00045289       0.00722881       0.00174633
O        2.70057764       1.27467167       7.79664772        1       0.00184176      -0.00087734       0.00118328
O        4.20883677       0.66580342      12.23159545        3      -0.00290537      -0.00301569      -0.54786687
C        1.17146344       2.18402030       9.95886520        2       0.00437792       0.00017971       0.00251182
Ti       1.18492499       3.92839099      11.28346218        0       0.00026980      -0.00010624      -0.00355850
Ti       2.69768470       3.05071863       8.68014857        0       0.00170275      -0.00221281       0.00581531
O        1.17718682       3.92336744       7.75344690        1      -0.00065483       0.00307444       0.00100656
O        2.69282848       3.08850398      12.23159545        3       0.00162512      -0.00452341      -0.23463415
C       -0.33230506       4.78829125       9.95960763        2       0.00383204       0.00085055      -0.00069309
Ti      -0.33047445       6.51875304      11.28958177        0      -0.00046852      -0.00094446      -0.00074877
Ti       1.18090901       5.67667730       8.68046036        0      -0.00035263       0.00140473       0.00565713
O       -0.35558056       6.56712044       7.79675157        1       0.00052589       0.00182625       0.00077990
O        1.21047226       5.65478947      12.23159545        3      -0.00003306      -0.00172776      -0.23261125
C       -1.85144649       7.44847206      10.06750437        2      -0.00256735       0.00209433      -0.00220513
Ti      -1.85220001       9.17391556      11.59406797        0       0.00311701      -0.00895056       0.00143261
Ti      -0.32913110       8.29287106       8.75542649        0       0.00069936      -0.00236269      -0.00009642
O       -1.85217383       9.17257193       7.86486773        1       0.00106639      -0.00198377      -0.00814430
O       -0.13107969       8.17930406      12.23159545        3       0.00178807      -0.00040923      -0.54687942
C        5.70051258      -0.46166919      10.06731518        2       0.00363217       0.00220600      -0.00274287
Ti       5.74667521       1.32185867      11.28952918        0       0.00036949       0.00295784      -0.00199621
Ti       7.24216925       0.42823184       8.71492433        0       0.00391065       0.00033270      -0.00163440
O        5.71597846       1.27504600       7.79737334        1       0.00002294      -0.00292567      -0.00214587
O        7.26299591       0.44062944      12.23159545        3       0.00250971      -0.00372130      -0.18759554
C        4.20863034       2.20511787       9.94051941        2      -0.00180228      -0.00341771      -0.00022199
Ti       4.20877792       3.93324707      11.28496226        0       0.00145375      -0.00386998      -0.00008063
Ti       5.71946143       3.05105575       8.68078815        0      -0.00097932      -0.00210901       0.00271326
O        4.20856094       3.92019368       7.74796499        1       0.00098403       0.00132140       0.00555624
O        5.72492749       3.08823910      12.23159545        3      -0.00428445      -0.00260163      -0.23537135
C        2.69493091       4.80030670       9.94113280        2      -0.00155748      -0.00213252       0.00168065
Ti       2.69993046       6.54464861      11.28542680        0       0.00318190      -0.00181625      -0.00300514
Ti       4.20821608       5.67398175       8.68061542        0       0.00191452      -0.00054700       0.00313388
O        2.68965936       6.55049697       7.74880541        1      -0.00087063       0.00150161       0.00100719
O        4.20828191       5.67374961      12.23159545        3       0.00244986       0.00173730      -0.18818276
C        1.20289556       7.40869920       9.94051393        2       0.00324240      -0.00089226       0.00030201
Ti       1.20723117       9.18268381      11.28970653        0      -0.00073230      -0.00482599      -0.00195427
Ti       2.69144752       8.29399058       8.68081754        0       0.00023184      -0.00043798       0.00434254
O        1.15179942       9.17887104       7.79682687        1       0.00359607       0.00138017       0.00009637
O        2.72578576       8.27927677      12.23159545        3      -0.00010282       0.00144523      -0.23202615
C        8.76403652      -0.44836613       9.95993588        2       0.00228456      -0.00046605      -0.00097786
Ti       8.76595226       1.30562734      11.28644612        0       0.00027190       0.00839979      -0.00280224
Ti      10.26844470       0.42006017       8.68329664        0       0.00185560       0.00066670       0.00325650
O        8.73844561       1.29065659       7.77119101        1      -0.00236261       0.00208315      -0.00290372
O       10.26874360       0.42280971      12.23159545        3      -0.00040507       0.00192214      -0.24842673
C        7.24571252       2.18391362       9.95982096        2      -0.00309184      -0.00085176      -0.00270321
Ti       7.23356965       3.92787253      11.28360433        0      -0.00548904      -0.00247372      -0.00304718
Ti       8.74945729       3.05163753       8.68407077        0       0.00041031      -0.00208131       0.00134432
O        7.24068342       3.92286651       7.75361921        1      -0.00395386       0.00416993       0.00217341
O        8.75284929       3.04919949      12.23159545        3      -0.00115573       0.00435792      -0.24833388
C        5.72263333       4.80022307       9.94116678        2      -0.00167896      -0.00295613       0.00318512
Ti       5.71737843       6.54421523      11.28573977        0      -0.00490853      -0.00039220      -0.00358876
Ti       7.23553240       5.67596536       8.68092113        0      -0.00037021       0.00165436       0.00362224
O        5.72740558       6.55050960       7.74904677        1       0.00026255      -0.00107291       0.00093098
O        7.20720704       5.65395214      12.23159545        3      -0.00350949       0.00336413      -0.22848654
C        4.20841964       7.42067411       9.94204132        2      -0.00056065       0.00496852       0.00012504
Ti       4.20842557       9.16400360      11.28319085        0      -0.00094779      -0.00109127      -0.00248747
Ti       5.72524167       8.29348873       8.68177765        0      -0.00192563       0.00089599       0.00016776
O        4.20853548       9.17314626       7.75470609        1      -0.00134975       0.00129111      -0.00237178
O        5.69067713       8.27947791      12.23159545        3       0.00123222      -0.00162746      -0.22936551
C        0.57095429       0.77329179      15.40132577       10       0.00722019       0.00000048       0.07824155
C        1.77864547       1.47549832      15.38603372       10      -0.00040186      -0.00039985       0.07373364
C       -0.64128653       2.87214673      15.40664647       10       0.00158460      -0.00162464       0.09204485
C        0.57127587       3.57205515      15.38893604       10       0.00011195       0.00216034       0.10797570
C       -1.85277840       4.97147383      15.40132577       10       0.00241888       0.00048187       0.07821060
C       -0.64069802       5.66604371      15.38603372       10      -0.00082167       0.00002193       0.07362824
C       -3.05938443       7.07260082      15.33821502       10      -0.00063230       0.00065706       0.14890272
C       -1.85267869       7.74803859      15.29639280       10      -0.00195115       0.00062257      -0.39811602
C       -4.27273467       9.17393053      15.33821502       10       0.00581755      -0.00070782       0.15007610
C       -3.08448466       9.88121529      15.29639280       10      -0.00058166      -0.00362762      -0.38772359
C        2.99413016       0.76762790      15.33821502       10      -0.00138744       0.00070229       0.15033519
C        4.20737861       1.47546012      15.30613634       10      -0.00361833       0.00181397       0.00928355
C        1.78291230       2.87333972      15.37499075       10       0.00144568       0.00150475       0.09416890
C        2.99492313       3.57316687      15.35307634       10       0.00088592       0.00081256       0.06905030
C        0.57206002       4.97073023      15.37499075       10       0.00022347       0.00227632       0.09422301
C        1.78414664       5.67047755      15.35307634       10      -0.00070370       0.00048494       0.06884887
C       -0.64597566       7.07261986      15.33821502       10      -0.00180661      -0.00027919       0.14879458
C        0.57361569       7.76932349      15.30613634       10       0.00119772      -0.00310870       0.00901324
C       -1.85275852       9.17011983      14.84358714       10      -0.00100595       0.00185304       1.72122258
C       -0.62109352       9.88106088      15.29639280       10       0.00110133       0.00025346      -0.38759190
C        5.42046616       0.76746957      15.33821502       10      -0.00252073       0.00449838       0.15045807
C        6.63576522       1.47548752      15.38603372       10       0.00054502      -0.00121096       0.07398274
C        4.20727346       2.86961366      15.33847005       10       0.00022928       0.00168932       0.02270192
C        5.41959560       3.57318288      15.35307634       10       0.00102546       0.00013973       0.06901635
C        2.99668214       4.97234352      15.35039473       10      -0.00408865      -0.00105378       0.10424607
C        4.20748961       5.67145134      15.34539396       10      -0.00520238      -0.00078678       0.05675762
C        1.78094068       7.07224096      15.33847005       10       0.00250922      -0.00149330       0.02265328
C        2.99636674       7.77048843      15.35307634       10       0.00112302      -0.00115192       0.06897663
C        0.56709478       9.17386622      15.33821502       10       0.00018561      -0.00124673       0.15025388
C        1.78781265       9.87255522      15.38603372       10       0.00020729      -0.00189880       0.07413236
C        7.84318044       0.77310429      15.40132577       10       0.00224571       0.00209102       0.07849812
C        9.05696024       1.47382330      15.40826429       10       0.00168438       0.00271225       0.12690237
C        6.63154415       2.87339753      15.37499075       10       0.00052356      -0.00138716       0.09426139
C        7.84322800       3.57210396      15.38893604       10      -0.00058892      -0.00035107       0.10833210
C        5.41817798       4.97230817      15.35039473       10      -0.00239040       0.00063630       0.10385199
C        6.63047340       5.67058095      15.35307634       10       0.00146857      -0.00163548       0.06874080
C        4.20728079       7.06959915      15.35039473       10      -0.00021812      -0.00106399       0.10364679
C        5.41809854       7.77052925      15.35307634       10       0.00073163      -0.00111718       0.06894960
C        2.99637761       9.17000219      15.37499075       10      -0.00234653      -0.00180351       0.09420890
C        4.20732191       9.86995422      15.38893604       10      -0.00300472      -0.00271535       0.10834886
C       10.26712790       0.77366961      15.40664647       10       0.00243128       0.00316685       0.09242182
C       11.47727575       1.47405903      15.40826429       10      -0.00148652      -0.00194411       0.12661729
C        9.05569660       2.87195376      15.40664647       10      -0.00068382       0.00299869       0.09214769
C       10.26724767       3.56987331      15.40826429       10      -0.00283750       0.00291711       0.12664438
C        7.84245197       4.97082461      15.37499075       10       0.00318628      -0.00058125       0.09410104
C        9.05527141       5.66600118      15.38603372       10      -0.00055061       0.00294357       0.07367099
C        6.63349061       7.07228110      15.33847005       10       0.00203566      -0.00097130       0.02236358
C        7.84091550       7.76923399      15.30613634       10      -0.00174552       0.00267622       0.00927924
C        5.41820111       9.16998041      15.37499075       10      -0.00007514       0.00104186       0.09415960
C        6.62662510       9.87270690      15.38603372       10      -0.00145824      -0.00395548       0.07416458
O       -1.85269442       9.17440666      13.47591039       11       0.00072148      -0.00414385      -0.00229502
