131
Lattice="12.12 0.0 0.0 -6.06 10.496227893867395 0.0 0.0 0.0 40.0" Properties=species:S:1:pos:R:3:tags:I:1:forces:R:3 energy=-1205.3200637240727 stress="0.00291343650370757 7.390047597328526e-07 -1.1581457851323938e-07 7.390047597328526e-07 0.0029136035389014736 1.5555375594172314e-06 -1.1581457851323938e-07 1.5555375594172314e-06 0.002270738496615987" pbc="T T F"
C       -0.00134669       0.00081769      10.00493625        2       0.00028045       0.00010866      -0.00071706
Ti      -0.00073658       1.74935499      11.29395437        0       0.00001663      -0.00029215      -0.00047270
Ti       1.51476747       0.87454452       8.71645611        0       0.00015659      -0.00012800      -0.00003762
O        0.00157510       1.74891649       7.77486272        1      -0.00076970       0.00060967       0.00032851
O        1.51272414       0.87969021      12.23008024        3       0.00028229       0.00012756       0.11949192
C       -1.51518572       2.62334543      10.00255729        2      -0.00023232       0.00006133       0.00031266
Ti      -1.51481404       4.37160726      11.29394913        0      -0.00013830       0.00046863       0.00018912
Ti       0.00014251       3.49902395       8.71355555        0      -0.00038621       0.00009123       0.00021560
O       -1.51539191       4.37667490       7.77696282        1       0.00008170      -0.00109525       0.00006025
O        0.00095678       3.49790707      12.23008024        3      -0.00012429       0.00015225       0.11472441
C       -3.03006958       5.24811196      10.00913994        2       0.00006583       0.00080201      -0.00154414
Ti      -3.02806171       7.00110683      11.32248231        0       0.00018102       0.00120484      -0.00005080
Ti      -1.51568024       6.12279871       8.72148696        0      -0.00003446       0.00046953      -0.00133530
O       -3.02902010       7.00008977       7.78455639        1      -0.00029249      -0.00077353      -0.00366415
O       -1.51165342       6.11551579      12.23008024        3      -0.00005244       0.00005674       0.10941539
C       -4.54564755       7.87212368      10.01247253        2       0.00056272       0.00022014      -0.00295350
Ti      -4.54468266       9.62167986      11.30487153        0       0.00121976      -0.00060497       0.00044113
Ti      -3.02994399       8.74703389       8.72756690        0      -0.00000532       0.00021595      -0.00557007
O       -4.54188965       9.61988876       7.78128083        1      -0.00119349       0.00079977      -0.00227042
O       -3.03639491       8.75014160      12.23008024        3      -0.00042196       0.00033787       0.00006144
C        3.02995866       0.00074967      10.01306875        2       0.00028984      -0.00037617      -0.00307612
Ti       3.02959751       1.74941431      11.29657347        0       0.00021917      -0.00044411       0.00033336
Ti       4.54511559       0.87352167       8.72021504        0      -0.00000242       0.00016476      -0.00157320
O        3.03071145       1.74759111       7.77768715        1      -0.00038626       0.00110709      -0.00058243
O        4.54636418       0.88272487      12.23008024        3      -0.00015135       0.00031473       0.13563149
C        1.51482688       2.62442783      10.00381090        2      -0.00028781      -0.00029085      -0.00021622
Ti       1.51493299       4.37282857      11.29454210        0      -0.00014276       0.00018904      -0.00047702
Ti       3.03008089       3.49836416       8.71392979        0      -0.00018322       0.00019559      -0.00011645
O        1.51491677       4.37398559       7.77480465        1      -0.00008762      -0.00002130       0.00048813
O        3.03018650       3.50040311      12.23008024        3      -0.00029714      -0.00002683       0.12314877
C        0.00059209       5.24770967      10.00598262        2      -0.00044066       0.00050428      -0.00067999
Ti      -0.00036149       6.99769542      11.30471679        0      -0.00063522       0.00060045       0.00098243
Ti       1.51423675       6.12327031       8.71524202        0       0.00004716       0.00017203       0.00036371
O       -0.00234610       6.99900361       7.78102847        1       0.00091909      -0.00042809      -0.00134845
O        1.51906429       6.12026257      12.23008024        3       0.00009105       0.00008577       0.12893118
C       -1.51512320       7.87245031      10.01901729        2      -0.00032750       0.00040737      -0.00346957
Ti      -1.51726053       9.61894286      11.32633579        0      -0.00067575      -0.00057810      -0.00085403
Ti      -0.00048240       8.74749398       8.72228258        0      -0.00013121       0.00016860      -0.00199251
O       -1.51658681       9.61965718       7.78504029        1       0.00061793       0.00083342      -0.00416585
O        0.00804195       8.74745865      12.23008024        3       0.00006430       0.00025529       0.11147197
C        6.05997320       0.00020443      10.00982100        2      -0.00062104      -0.00038710      -0.00177285
Ti       6.06157286       1.75049740      11.29342808        0      -0.00029577      -0.00023648       0.00008692
Ti       7.57496419       0.87472777       8.71394834        0      -0.00041638      -0.00011497       0.00028202
O        6.05841018       1.74807318       7.77646343        1       0.00096895       0.00086531       0.00016758
O        7.57664876       0.87602073      12.23008024        3      -0.00052364      -0.00015087       0.11894332
C        4.54516481       2.62459647      10.00456277        2      -0.00003999      -0.00015668      -0.00061142
Ti       4.54542565       4.37356895      11.29519563        0      -0.00020409       0.00022844      -0.00047820
Ti       6.05994643       3.49887939       8.71347740        0       0.00035495      -0.00003522       0.00037123
O        4.54522333       4.37343273       7.77442601        1       0.00001715       0.00021000       0.00022877
O        6.05913441       3.49922187      12.23008024        3      -0.00015216      -0.00029791       0.09089672
C        3.03011969       5.24813913      10.00355161        2      -0.00006214       0.00019318      -0.00010893
Ti       3.03024783       6.99800693      11.29471570        0       0.00003902       0.00035547      -0.00040315
Ti       4.54534980       6.12310256       8.71401929        0      -0.00012526       0.00023623      -0.00048076
O        3.02950125       6.99742205       7.77489633        1       0.00017077       0.00035389       0.00041020
O        4.54365133       6.12246272      12.23008024        3      -0.00005035       0.00034041       0.11869715
C        1.51553228       7.87196522      10.00618779        2      -0.00043875       0.00041133      -0.00077000
Ti       1.51635198       9.62287244      11.29445772        0      -0.00040203      -0.00003340       0.00046461
Ti       3.02975160       8.74668984       8.71372150        0      -0.00013826       0.00063109       0.00034359
O        1.51193465       9.62040758       7.77726491        1       0.00125500       0.00084153       0.00000903
O        3.03087026       8.74651472      12.23008024        3      -0.00005107       0.00034833       0.10887031
C        9.09057537       0.00069457      10.00261468        2      -0.00002123       0.00053140       0.00036772
Ti       9.09028679       1.74946999      11.29376913        0       0.00014467       0.00010806      -0.00044791
Ti      10.60498308       0.87470528       8.71316327        0       0.00010997       0.00013614      -0.00176212
O        9.08903425       1.74989039       7.77398798        1       0.00020853       0.00012409       0.00048796
O       10.60395912       0.87509983      12.23008024        3       0.00018959       0.00010595       0.11291295
C        7.57539478       2.62425967      10.00334898        2       0.00034393      -0.00003700       0.00040620
Ti       7.57548725       4.37299971      11.29453609        0       0.00015599       0.00043298      -0.00023886
Ti       9.08986537       3.49886041       8.71407507        0       0.00016251       0.00062401      -0.00031554
O        7.57533272       4.37553579       7.77631904        1      -0.00008734      -0.00087857       0.00011653
O        9.09049639       3.49753809      12.23008024        3       0.00003478       0.00076108       0.12152685
C        6.05990925       5.24813432      10.00477033        2       0.00027523       0.00016807      -0.00048702
Ti       6.05992503       6.99833568      11.29635531        0       0.00050923       0.00022051       0.00003556
Ti       7.57604453       6.12345024       8.71967751        0       0.00008735       0.00023837      -0.00127027
O        6.06180713       6.99789064       7.77748338        1      -0.00091233       0.00005919      -0.00050609
O        7.56970474       6.11899725      12.23008024        3      -0.00026191      -0.00003588       0.13410929
C        4.54462946       7.87230129      10.00387304        2       0.00023286       0.00060547      -0.00025971
Ti       4.54455495       9.62233573      11.29389393        0       0.00053973       0.00056956      -0.00045677
Ti       6.06014425       8.74728681       8.71638143        0       0.00026281       0.00027669       0.00000836
O        4.54606504       9.62046885       7.77487953        1      -0.00070687       0.00063766       0.00040440
O        6.05467543       8.74683495      12.23008024        3       0.00011112      -0.00000153       0.11887293
C        0.04176529       0.06960138      16.96296845       10       0.00615364       0.00050369      -0.00755080
C        1.25234702       0.76884782      16.94767640       10      -0.00018995      -0.00181590       0.01045066
C       -1.16825436       2.16786100      16.96828915       10      -0.00122616       0.00122290      -0.02171633
C        0.04367128       2.86754195      16.95057872       10      -0.00068029       0.00071976      -0.01176317
C       -2.38027824       4.26515338      16.96296845       10      -0.00378622       0.00097083      -0.00545911
C       -1.16946740       4.96390922      16.94767640       10      -0.00069774       0.00042919       0.02121184
C       -3.58745856       6.36788039      16.89985770       10      -0.00281461       0.00075197      -0.02554615
C       -2.38040987       7.05036889      16.85803548       10       0.00081505      -0.00128462      -0.46589393
C       -4.80071689       8.46925076      16.89985770       10       0.00340462      -0.00058551      -0.01408954
C       -3.60578590       9.17310596      16.85803548       10      -0.00080520      -0.00189786      -0.47266251
C        2.46613054       0.06359806      16.89985770       10       0.00290909      -0.00271848      -0.01762002
C        3.67936980       0.76657095      16.86777902       10       0.00363310       0.00198259       0.16363465
C        1.25513161       2.16704643      16.93663343       10       0.00088532      -0.00105710      -0.02645238
C        2.46715639       2.86627390      16.91471902       10       0.00011461       0.00049292      -0.05228079
C        0.04286881       4.26708119      16.93663343       10       0.00050834      -0.00122484      -0.03112142
C        1.25454245       4.96704432      16.91471902       10      -0.00187517       0.00007931      -0.04559458
C       -1.17337580       6.36770376      16.89985770       10       0.00128201       0.00117681      -0.03392706
C        0.04208669       7.06676293      16.86777902       10      -0.00017993      -0.00165958       0.16205631
C       -2.38045477       8.46510226      16.40522982       10       0.00173910      -0.00267085       0.26625201
C       -1.15532941       9.17267211      16.85803548       10       0.00093276       0.00207011      -0.48012986
C        4.89239035       0.06311861      16.89985770       10      -0.00002697      -0.00358230      -0.03004743
C        6.10639954       0.76838855      16.94767640       10       0.00090002       0.00158169       0.02450745
C        3.67955839       2.16384346      16.90011273       10      -0.00182992       0.00129123      -0.09220629
C        4.89208919       2.86614333      16.91471902       10      -0.00094613       0.00024175      -0.04739224
C        2.46685532       4.26645813      16.91203741       10      -0.00196534      -0.00013840      -0.01319583
C        3.67974843       4.96663632      16.90703664       10      -0.00082058       0.00104212      -0.04028483
C        1.25223479       6.36821621      16.90011273       10       0.00051182      -0.00043210      -0.10219685
C        2.46678132       7.06689516      16.91471902       10       0.00095032       0.00087023      -0.04143215
C        0.03956161       8.46890128      16.89985770       10      -0.00041693      -0.00212641      -0.02715616
C        1.25732564       9.16739688      16.94767640       10      -0.00000636       0.00392479       0.02224702
C        7.31713227       0.06917161      16.96296845       10      -0.00116915      -0.00225307      -0.00869434
C        8.52856170       0.76872250      16.96990697       10      -0.00006323       0.00068510      -0.01735893
C        6.10400057       2.16669303      16.93663343       10      -0.00088585       0.00273730      -0.03218469
C        7.31560320       2.86729437      16.95057872       10      -0.00208292      -0.00129208      -0.01229413
C        4.89249589       4.26635552      16.91203741       10      -0.00062685       0.00109565      -0.01019716
C        6.10490463       4.96687064      16.91471902       10      -0.00206718       0.00072356      -0.04968028
C        3.67961596       6.36718157      16.91203741       10      -0.00147897      -0.00048684      -0.01319353
C        4.89238661       7.06699360      16.91471902       10      -0.00053658       0.00089309      -0.05024015
C        2.46719083       8.46622784      16.93663343       10      -0.00251794      -0.00180673      -0.03720875
C        3.67963646       9.16527278      16.95057872       10       0.00022674       0.00223765      -0.00746133
C        9.73954806       0.06847696      16.96828915       10       0.00227290      -0.00065476      -0.02733820
C       10.95041494       0.76903824      16.96990697       10      -0.00062374      -0.00225097      -0.02864531
C        8.52765529       2.16761520      16.96828915       10      -0.00251147       0.00193941      -0.02043390
C        9.73961800       2.86632808      16.96990697       10       0.00275730      -0.00164759      -0.02435367
C        7.31649266       4.26682454      16.93663343       10      -0.00194472      -0.00008694      -0.03407924
C        8.52864159       4.96389891      16.94767640       10       0.00263761      -0.00111773       0.02364815
C        6.10691513       6.36822885      16.90011273       10      -0.00093698      -0.00258440      -0.09155178
C        7.31696627       7.06698950      16.86777902       10       0.00059656      -0.00264695       0.17051131
C        4.89200648       8.46632040      16.93663343       10       0.00182333      -0.00089780      -0.02679596
C        6.10161173       9.16779991      16.94767640       10      -0.00227636      -0.00287334       0.00562103
O       -2.38664418       8.46221698      15.05085232       11       0.00457604      -0.00178454      -0.00078414
