131
Lattice="12.12 0.0 0.0 -6.06 10.496227893867395 0.0 0.0 0.0 40.0" Properties=species:S:1:pos:R:3:tags:I:1:forces:R:3 energy=-1205.7592722284826 stress="0.0029304729613223984 -5.554388401705756e-07 -5.992034122752748e-06 -5.554388401705756e-07 0.0029307899353075225 1.51451140475167e-06 -5.992034122752748e-06 1.51451140475167e-06 0.002393906015912148" pbc="T T F"
C       -0.00248079       0.00114088      10.00535778        2      -0.00038119       0.00006963      -0.00139871
Ti      -0.00151966       1.74990598      11.29748915        0      -0.00057650      -0.00085335      -0.00060743
Ti       1.51418111       0.87457475       8.71847573        0      -0.00070535      -0.00020153      -0.00058578
O        0.00158215       1.74912461       7.77709217        1      -0.00139481       0.00066774       0.00005090
O        1.51078399       0.88088942      12.23008024        3      -0.00019858       0.00000139       0.10478743
C       -1.51566517       2.62340222      10.00304051        2      -0.00104922      -0.00007640       0.00013009
Ti      -1.51563759       4.37193623      11.29793506        0      -0.00102176       0.00017789       0.00024579
Ti      -0.00012556       3.49914826       8.71548146        0      -0.00118934      -0.00008348      -0.00006618
O       -1.51571873       4.37768019       7.77982326        1      -0.00070217      -0.00112119      -0.00024519
O        0.00038104       3.49824696      12.23008024        3      -0.00112619      -0.00023943       0.10130600
C       -3.03050456       5.24870713      10.01095404        2      -0.00050785       0.00100259      -0.00209766
Ti      -3.03005227       7.00211085      11.32727469        0      -0.00016034       0.00113922      -0.00082710
Ti      -1.51623739       6.12279048       8.72490445        0      -0.00083399       0.00025248      -0.00216090
O       -3.02873162       7.00074808       7.78777084        1      -0.00104356      -0.00087944      -0.00448049
O       -1.51203101       6.11414213      12.23008024        3      -0.00055973      -0.00026209       0.09606106
C       -4.54690466       7.87163247      10.01374488        2       0.00005480       0.00002113      -0.00378314
Ti      -4.54597638       9.62164152      11.30883302        0       0.00135650      -0.00084925       0.00035884
Ti      -3.03061833       8.74718403       8.73153439        0      -0.00076154       0.00015533      -0.00662044
O       -4.54161970       9.61972494       7.78403782        1      -0.00188122       0.00073471      -0.00297747
O       -3.04608983       8.75291382      12.23008024        3      -0.00171390       0.00059402      -0.27280529
C        3.02943789       0.00099712      10.01528932        2      -0.00003878      -0.00036873      -0.00403271
Ti       3.02857652       1.74981022      11.29997787        0      -0.00032530      -0.00038869      -0.00005470
Ti       4.54472775       0.87333797       8.72288254        0      -0.00077243       0.00025204      -0.00244459
O        3.03056739       1.74713394       7.78035328        1      -0.00124671       0.00122901      -0.00107335
O        4.54552884       0.88320278      12.23008024        3      -0.00076605       0.00060534       0.12481085
C        1.51447337       2.62463017      10.00477814        2      -0.00103903      -0.00044980      -0.00060151
Ti       1.51504847       4.37260007      11.29777761        0      -0.00130881       0.00013362      -0.00059146
Ti       3.02984304       3.49836577       8.71535316        0      -0.00089270       0.00024855      -0.00048049
O        1.51461040       4.37417115       7.77723693        1      -0.00081590      -0.00009796       0.00032310
O        3.03007096       3.50049068      12.23008024        3      -0.00126332       0.00001353       0.10366059
C        0.00027383       5.24794008      10.00763132        2      -0.00124344       0.00032655      -0.00116709
Ti      -0.00066439       6.99743961      11.31045853        0      -0.00159303       0.00085841       0.00088294
Ti       1.51371887       6.12345430       8.71750971        0      -0.00058813       0.00002636       0.00026769
O       -0.00332234       6.99954964       7.78478712        1       0.00008071      -0.00051926      -0.00192630
O        1.51910757       6.12035816      12.23008024        3      -0.00087119       0.00015745       0.12050282
C       -1.51619981       7.87283234      10.02405007        2      -0.00103474       0.00056740      -0.00409735
Ti      -1.51959369       9.61823376      11.33165405        0      -0.00100572      -0.00042468      -0.00183105
Ti      -0.00086808       8.74786543       8.72597719        0      -0.00081601       0.00007072      -0.00285853
O       -1.51714417       9.61897968       7.78858971        1      -0.00006799       0.00081688      -0.00515167
O        0.00963294       8.74747995      12.23008024        3      -0.00009268       0.00034182       0.09347305
C        6.05882339      -0.00027124      10.01246680        2      -0.00155907      -0.00039356      -0.00244851
Ti       6.06051976       1.74918642      11.29803973        0      -0.00129503      -0.00010602      -0.00017381
Ti       7.57489075       0.87490584       8.71596769        0      -0.00102894      -0.00017559      -0.00041983
O        6.05770729       1.74732988       7.77929669        1       0.00055402       0.00088999      -0.00030277
O        7.57636698       0.87562107      12.23008024        3      -0.00149420       0.00011902       0.10943898
C        4.54492437       2.62428981      10.00580782        2      -0.00079853       0.00012515      -0.00113321
Ti       4.54533117       4.37297721      11.29867050        0      -0.00128593       0.00058841      -0.00062222
Ti       6.05983661       3.49866323       8.71525868        0      -0.00021174      -0.00015583       0.00003896
O        4.54500736       4.37311231       7.77656180        1      -0.00075402       0.00028080       0.00000626
O        6.06022861       3.49961704      12.23008024        3      -0.00051024       0.00013610       0.13666394
C        3.02994219       5.24792927      10.00432454        2      -0.00087400       0.00018584      -0.00031785
Ti       3.03070833       6.99744065      11.29785364        0      -0.00081829       0.00053254      -0.00051541
Ti       4.54505100       6.12290640       8.71512685        0      -0.00083709       0.00022066      -0.00062402
O        3.02891677       6.99739540       7.77716224        1      -0.00046273       0.00024763       0.00028751
O        4.54326645       6.12130906      12.23008024        3      -0.00087685       0.00048180       0.10179889
C        1.51512574       7.87175782      10.00777717        2      -0.00113410       0.00043379      -0.00140483
Ti       1.51595840       9.62258372      11.29825021        0      -0.00087275       0.00022074       0.00041085
Ti       3.02940570       8.74664139       8.71550668        0      -0.00077334       0.00067148      -0.00007062
O        1.51062292       9.62005553       7.78033563        1       0.00055918       0.00076634      -0.00049682
O        3.03074638       8.74581216      12.23008024        3      -0.00060106       0.00056048       0.10145181
C        9.09020988       0.00067649      10.00322345        2      -0.00067599       0.00056944       0.00003090
Ti       9.08982905       1.74938523      11.29690758        0      -0.00062314      -0.00001043      -0.00042180
Ti      10.60467129       0.87473544       8.71478461        0      -0.00059637       0.00010246      -0.00190662
O        9.08832797       1.74994834       7.77607866        1      -0.00023735       0.00005592       0.00022222
O       10.60390082       0.87526373      12.23008024        3      -0.00036676      -0.00000938       0.09536015
C        7.57508155       2.62392058      10.00397232        2      -0.00037089      -0.00009388      -0.00014096
Ti       7.57509002       4.37247635      11.29765429        0      -0.00062002       0.00081987      -0.00017489
Ti       9.08968232       3.49868492       8.71564140        0      -0.00061134       0.00053642      -0.00040738
O        7.57525515       4.37580037       7.77864576        1      -0.00069840      -0.00107076       0.00003955
O        9.08973664       3.49693216      12.23008024        3      -0.00108482       0.00077775       0.10580341
C        6.05956025       5.24778999      10.00526313        2      -0.00067132       0.00027784      -0.00078981
Ti       6.05873051       6.99776279      11.29936025        0       0.00003245       0.00026577      -0.00003664
Ti       7.57582507       6.12351686       8.72147669        0      -0.00072212       0.00013201      -0.00156034
O        6.06171585       6.99793241       7.77951796        1      -0.00177619      -0.00003993      -0.00060082
O        7.56782849       6.11789470      12.23008024        3      -0.00085131       0.00010824       0.12453916
C        4.54411633       7.87203087      10.00447501        2      -0.00031729       0.00070651      -0.00040249
Ti       4.54379880       9.62218560      11.29741326        0       0.00039998       0.00042635      -0.00064011
Ti       6.05966652       8.74733838       8.71800989        0      -0.00041875       0.00033163      -0.00038191
O        4.54560651       9.62026516       7.77695249        1      -0.00140833       0.00041526       0.00014842
O        6.05208103       8.74638923      12.23008024        3      -0.00005171       0.00009778       0.10651559
C        0.04214162       0.06952954      16.67875793       10       0.00884284       0.00091937       0.02447279
C        1.25293724       0.76852274      16.66346588       10       0.00064590      -0.00166715       0.00996494
C       -1.16811348       2.16785972      16.68407863       10      -0.00069128       0.00207503      -0.01609800
C        0.04392100       2.86751846      16.66636820       10       0.00030040       0.00105940      -0.00719565
C       -2.38015075       4.26541266      16.67875793       10      -0.00342895       0.00173480      -0.00923834
C       -1.16908876       4.96417007      16.66346588       10       0.00070771       0.00050578       0.02284218
C       -3.58702673       6.36796663      16.61564718       10      -0.00211721       0.00110513      -0.02808832
C       -2.37984060       7.05064127      16.57382496       10       0.00242484      -0.00190889      -0.45519427
C       -4.79923839       8.46926895      16.61564718       10       0.00506334      -0.00039429      -0.00726976
C       -3.60354226       9.17213501      16.57382496       10      -0.00047622      -0.00174386      -0.49862005
C        2.46707049       0.06276100      16.61564718       10       0.00461748      -0.00317716      -0.00473041
C        3.67992306       0.76697551      16.58356850       10       0.00549287       0.00256450       0.16919556
C        1.25547290       2.16690769      16.65242291       10       0.00207901      -0.00085800      -0.01544203
C        2.46736341       2.86658268      16.63050850       10       0.00129486       0.00051278      -0.05012008
C        0.04300719       4.26701233      16.65242291       10       0.00182153      -0.00112034      -0.03037250
C        1.25449323       4.96728677      16.63050850       10      -0.00068252      -0.00003306      -0.04072726
C       -1.17311500       6.36784782      16.61564718       10       0.00305998       0.00136762      -0.01607468
C        0.04255653       7.06704383      16.58356850       10       0.00117733      -0.00210826       0.17615720
C       -2.37732691       8.46479162      16.12101930       10       0.00323338      -0.00329883       0.51341818
C       -1.15399069       9.17334521      16.57382496       10       0.00234499       0.00297787      -0.43981195
C        4.89317535       0.06381955      16.61564718       10       0.00125066      -0.00443137      -0.02274345
C        6.10701108       0.76876475      16.66346588       10       0.00212783       0.00225683       0.02023514
C        3.67976053       2.16425194      16.61590221       10      -0.00115387       0.00129385      -0.10049404
C        4.89219167       2.86642227      16.63050850       10      -0.00028432       0.00030264      -0.03701225
C        2.46701335       4.26678132      16.62782689       10      -0.00109181      -0.00016355      -0.00803860
C        3.67966128       4.96703412      16.62282612       10       0.00029167       0.00119723      -0.04273372
C        1.25258829       6.36827774      16.61590221       10       0.00167987      -0.00035848      -0.09025630
C        2.46690275       7.06703509      16.63050850       10       0.00238151       0.00088028      -0.04123208
C        0.04045887       8.46935950      16.61564718       10       0.00036308      -0.00277346      -0.01671002
C        1.25798754       9.16760930      16.66346588       10       0.00080760       0.00473642       0.02594119
C        7.31746405       0.06965242      16.67875793       10      -0.00048763      -0.00307808      -0.01099240
C        8.52884695       0.76889957      16.68569645       10       0.00071603       0.00078662      -0.01776499
C        6.10428716       2.16715634      16.65242291       10      -0.00014645       0.00329718      -0.03484087
C        7.31596587       2.86770389      16.66636820       10      -0.00196512      -0.00160470       0.00399699
C        4.89254443       4.26672618      16.62782689       10       0.00054222       0.00141022      -0.01523008
C        6.10506199       4.96726964      16.63050850       10      -0.00147339       0.00076453      -0.03773380
C        3.67989830       6.36727363      16.62782689       10      -0.00038168      -0.00027510      -0.01394450
C        4.89260073       7.06712919      16.63050850       10       0.00043037       0.00087646      -0.04600382
C        2.46764427       8.46630088      16.65242291       10      -0.00232912      -0.00222867      -0.02789774
C        3.67996447       9.16520201      16.66636820       10       0.00076744       0.00267562      -0.01055975
C        9.73981180       0.06851499      16.68407863       10       0.00401462      -0.00071182      -0.01607603
C       10.95070029       0.76900419      16.68569645       10       0.00013092      -0.00264280      -0.02337025
C        8.52789612       2.16792907      16.68407863       10      -0.00211335       0.00254174      -0.03330686
C        9.73983334       2.86660252      16.68569645       10       0.00417167      -0.00195022      -0.02037436
C        7.31677394       4.26732110      16.65242291       10      -0.00105408       0.00002461      -0.03861706
C        8.52912635       4.96417823      16.66346588       10       0.00414838      -0.00147907       0.01771681
C        6.10700507       6.36837144      16.61590221       10       0.00049939      -0.00279256      -0.10591972
C        7.31715636       7.06680883      16.58356850       10       0.00204928      -0.00329773       0.16836782
C        4.89264359       8.46644600      16.65242291       10       0.00334623      -0.00092592      -0.02084005
C        6.10248051       9.16780036      16.66346588       10      -0.00232924      -0.00346159       0.00959262
O       -2.36084399       8.45818412      14.77062249       11       0.00622257      -0.00305871       0.00111706
