131
Lattice="12.12 0.0 0.0 -6.06 10.496227893867395 0.0 0.0 0.0 40.0" Properties=species:S:1:pos:R:3:tags:I:1:forces:R:3 energy=-1205.0706858298045 stress="0.002901635203367789 4.1010561964294105e-07 -1.2137017277792584e-06 4.1010561964294105e-07 0.0029022531523451257 -1.850220058907287e-06 -1.2137017277792584e-06 -1.850220058907287e-06 0.002207635896361331" pbc="T T F"
C       -0.00128793       0.00050533      10.00461666        2       0.00011774      -0.00031810      -0.00086507
Ti      -0.00075358       1.74919258      11.29333873        0      -0.00016923      -0.00065685      -0.00037935
Ti       1.51478193       0.87434267       8.71590914        0       0.00001674      -0.00055705      -0.00012401
O        0.00143866       1.74866709       7.77416798        1      -0.00099458       0.00026429       0.00033645
O        1.51245544       0.87841258      12.23008024        3       0.00004996      -0.00034481       0.11404254
C       -1.51527146       2.62314762      10.00238165        2      -0.00047065      -0.00033191       0.00053370
Ti      -1.51507737       4.37123706      11.29250208        0      -0.00029916       0.00037072       0.00023671
Ti       0.00008384       3.49882453       8.71280534        0      -0.00055397      -0.00037427       0.00041842
O       -1.51543466       4.37600719       7.77576990        1      -0.00000781      -0.00157120       0.00026466
O        0.00076082       3.49801444      12.23008024        3      -0.00039393      -0.00014957       0.10572492
C       -3.03014238       5.24751201      10.00810429        2      -0.00003273       0.00048219      -0.00148501
Ti      -3.02844367       6.99970329      11.31920857        0       0.00006876       0.00097456      -0.00020729
Ti      -1.51562193       6.12265860       8.71989006        0      -0.00021331      -0.00001256      -0.00130979
O       -3.02936123       6.99962232       7.78300951        1      -0.00043301      -0.00128110      -0.00372359
O       -1.51212188       6.11628003      12.23008024        3      -0.00020034       0.00016486       0.10283945
C       -4.54556435       7.87173943      10.01171204        2       0.00036973      -0.00013450      -0.00299329
Ti      -4.54481143       9.62100334      11.30369919        0       0.00100772      -0.00080639       0.00032721
Ti      -3.02993518       8.74676617       8.72572745        0      -0.00017267      -0.00023986      -0.00560985
O       -4.54223346       9.61986696       7.78026404        1      -0.00137829       0.00037340      -0.00241766
O       -3.03491648       8.74852347      12.23008024        3      -0.00033630       0.00009791       0.05368986
C        3.02984835       0.00008600      10.01229928        2       0.00012078      -0.00071238      -0.00316074
Ti       3.02940419       1.74882207      11.29551929        0       0.00002259      -0.00076619      -0.00007803
Ti       4.54509857       0.87350205       8.71916162        0      -0.00014827      -0.00031957      -0.00160581
O        3.03058289       1.74745425       7.77682764        1      -0.00050333       0.00065197      -0.00069974
O        4.54587975       0.88121373      12.23008024        3      -0.00024684      -0.00006213       0.13504398
C        1.51472704       2.62414627      10.00346567        2      -0.00041153      -0.00066032      -0.00021929
Ti       1.51470156       4.37281731      11.29331689        0      -0.00032279      -0.00018854      -0.00037189
Ti       3.03001654       3.49819056       8.71331859        0      -0.00031860      -0.00024575      -0.00025119
O        1.51490816       4.37366846       7.77384333        1      -0.00031139      -0.00044204       0.00048234
O        3.02962757       3.49995192      12.23008024        3      -0.00042264      -0.00056561       0.12712568
C        0.00035345       5.24740367      10.00508106        2      -0.00063542       0.00008824      -0.00055439
Ti      -0.00069058       6.99728554      11.30257430        0      -0.00078097       0.00042254       0.00068903
Ti       1.51431920       6.12306259       8.71422423        0      -0.00015909      -0.00028350       0.00021110
O       -0.00214605       6.99867038       7.77947275        1       0.00080553      -0.00093463      -0.00135160
O        1.51823553       6.12049833      12.23008024        3      -0.00017677      -0.00021777       0.11706443
C       -1.51531718       7.87204773      10.01675277        2      -0.00051198       0.00016364      -0.00360135
Ti      -1.51689118       9.61831338      11.32290731        0      -0.00079463      -0.00073876      -0.00063651
Ti      -0.00044525       8.74726991       8.72066820        0      -0.00032878      -0.00028549      -0.00204186
O       -1.51659797       9.61977555       7.78352252        1       0.00052700       0.00042492      -0.00417814
O        0.00710453       8.74649419      12.23008024        3      -0.00008057      -0.00002194       0.09588293
C        6.06003411      -0.00009090      10.00876627        2      -0.00064389      -0.00062298      -0.00178597
Ti       6.06092927       1.74935789      11.29306526        0      -0.00038111      -0.00053461      -0.00005596
Ti       7.57483881       0.87458756       8.71340669        0      -0.00046657      -0.00055073       0.00009271
O        6.05843290       1.74799698       7.77565560        1       0.00080521       0.00037832      -0.00003905
O        7.57574237       0.87493102      12.23008024        3      -0.00078307      -0.00048770       0.12924669
C        4.54495484       2.62415392      10.00428435        2      -0.00011157      -0.00058485      -0.00058839
Ti       4.54500227       4.37309894      11.29407574        0      -0.00027337      -0.00023048      -0.00029765
Ti       6.05990245       3.49863613       8.71318622        0       0.00021649      -0.00052531       0.00021785
O        4.54511810       4.37318085       7.77366294        1      -0.00015301      -0.00029456       0.00014037
O        6.05922438       3.49910878      12.23008024        3       0.00004348      -0.00034602       0.08932738
C        3.02990830       5.24793556      10.00301988        2      -0.00024373      -0.00025640      -0.00002721
Ti       3.02990784       6.99767394      11.29333498        0      -0.00016015      -0.00021023      -0.00037119
Ti       4.54526849       6.12285844       8.71319233        0      -0.00022026      -0.00023529      -0.00040268
O        3.02956987       6.99729360       7.77386382        1      -0.00007795      -0.00011921       0.00035875
O        4.54308547       6.12177429      12.23008024        3      -0.00012972      -0.00018285       0.12919731
C        1.51548399       7.87175345      10.00525190        2      -0.00054940       0.00006775      -0.00079697
Ti       1.51611700       9.62217088      11.29316115        0      -0.00046371      -0.00032317       0.00018990
Ti       3.02978190       8.74661094       8.71297122        0      -0.00027625       0.00010778       0.00028945
O        1.51229176       9.62040335       7.77614148        1       0.00112911       0.00032853      -0.00014536
O        3.03100463       8.74640958      12.23008024        3      -0.00002280      -0.00000516       0.11505031
C        9.09050701       0.00034428      10.00243164        2      -0.00011782       0.00012287       0.00035849
Ti       9.08990216       1.74892049      11.29297089        0       0.00001234      -0.00015708      -0.00033122
Ti      10.60495941       0.87456875       8.71269911        0       0.00001822      -0.00041089      -0.00175618
O        9.08913756       1.74957524       7.77329446        1       0.00015827      -0.00024334       0.00049675
O       10.60451159       0.87476438      12.23008024        3       0.00023625      -0.00035456       0.10574604
C        7.57518256       2.62372917      10.00308316        2       0.00023005      -0.00047777       0.00037270
Ti       7.57535530       4.37237462      11.29369363        0       0.00002270       0.00027273      -0.00028648
Ti       9.08979431       3.49871343       8.71335028        0      -0.00000716       0.00015700      -0.00005969
O        7.57516061       4.37506703       7.77544112        1      -0.00014736      -0.00131859       0.00003159
O        9.08988327       3.49666488      12.23008024        3      -0.00024652       0.00042499       0.12847222
C        6.05967069       5.24775996      10.00414342        2       0.00011100      -0.00017300      -0.00056984
Ti       6.05943457       6.99752478      11.29480452        0       0.00038232      -0.00007058      -0.00010498
Ti       7.57583719       6.12308237       8.71856758        0      -0.00005656      -0.00023736      -0.00141444
O        6.06167061       6.99777760       7.77647714        1      -0.00101196      -0.00046745      -0.00062430
O        7.56949869       6.11791426      12.23008024        3      -0.00026568      -0.00024456       0.13477946
C        4.54456637       7.87201670      10.00342813        2       0.00011288       0.00010451      -0.00023921
Ti       4.54457115       9.62187940      11.29323747        0       0.00029028       0.00003834      -0.00047340
Ti       6.06012919       8.74704083       8.71575160        0       0.00018720      -0.00022450      -0.00007977
O        4.54605104       9.62044331       7.77416593        1      -0.00086269       0.00022075       0.00026306
O        6.05504826       8.74622406      12.23008024        3       0.00014869      -0.00029837       0.12004984
C        0.04176438       0.06993232      17.10507372       10       0.00651935       0.00117434      -0.00459230
C        1.25236070       0.76934497      17.08978167       10       0.00012018      -0.00130514       0.00642613
C       -1.16826306       2.16810157      17.11039442       10      -0.00098176       0.00188297      -0.02626404
C        0.04357827       2.86786957      17.09268399       10      -0.00045487       0.00139484      -0.00857225
C       -2.38012669       4.26560187      17.10507372       10      -0.00367673       0.00154425       0.00038094
C       -1.16933816       4.96436254      17.08978167       10      -0.00045901       0.00105546       0.02171959
C       -3.58710120       6.36850746      17.04196297       10      -0.00266529       0.00129774      -0.02303620
C       -2.38028285       7.05117745      17.00014075       10       0.00109199      -0.00064415      -0.47327180
C       -4.80086293       8.46965704      17.04196297       10       0.00364934      -0.00001170      -0.01580533
C       -3.60638217       9.17384012      17.00014075       10      -0.00055220      -0.00141170      -0.45600674
C        2.46609816       0.06416796      17.04196297       10       0.00324043      -0.00215930      -0.01999188
C        3.67949320       0.76689814      17.00988429       10       0.00401014       0.00251711       0.16932164
C        1.25510649       2.16752538      17.07873870       10       0.00124072      -0.00049562      -0.03120137
C        2.46732195       2.86660183      17.05682429       10       0.00031230       0.00116185      -0.04957998
C        0.04285150       4.26738951      17.07873870       10       0.00084137      -0.00065600      -0.03664120
C        1.25463174       4.96714016      17.05682429       10      -0.00171908       0.00078785      -0.04483752
C       -1.17331302       6.36833524      17.04196297       10       0.00152937       0.00174834      -0.03120435
C        0.04233376       7.06725388      17.00988429       10       0.00003627      -0.00106959       0.16786596
C       -2.38051540       8.46650993      16.54733509       10       0.00187187      -0.00218789       0.21300068
C       -1.15473398       9.17356469      17.00014075       10       0.00099577       0.00256703      -0.47208492
C        4.89277906       0.06383693      17.04196297       10       0.00020220      -0.00308150      -0.02027815
C        6.10674823       0.76901517      17.08978167       10       0.00115957       0.00215344       0.02418858
C        3.67973498       2.16416804      17.04221800       10      -0.00164425       0.00200232      -0.08798627
C        4.89231890       2.86656748      17.05682429       10      -0.00072392       0.00089808      -0.05977011
C        2.46707317       4.26682712      17.05414268       10      -0.00169241       0.00049053      -0.00617563
C        3.67997982       4.96694930      17.04914191       10      -0.00060739       0.00178003      -0.04193030
C        1.25245239       6.36839360      17.04221800       10       0.00084563       0.00018906      -0.10615101
C        2.46708756       7.06707425      17.05682429       10       0.00120345       0.00159614      -0.04300175
C        0.03990628       8.46948618      17.04196297       10      -0.00022985      -0.00158506      -0.03800649
C        1.25773684       9.16780842      17.08978167       10       0.00015132       0.00462067       0.01895598
C        7.31737805       0.06960505      17.10507372       10      -0.00091743      -0.00159773      -0.00121784
C        8.52878000       0.76911104      17.11201224       10       0.00026310       0.00137521      -0.01620375
C        6.10442047       2.16724740      17.07873870       10      -0.00079911       0.00345156      -0.03737886
C        7.31598871       2.86787941      17.09268399       10      -0.00186022      -0.00066300      -0.01587712
C        4.89274905       4.26679873      17.05414268       10      -0.00048768       0.00174764      -0.01469398
C        6.10520316       4.96731285      17.05682429       10      -0.00182873       0.00143686      -0.05550011
C        3.67990817       6.36743195      17.05414268       10      -0.00123832       0.00008085      -0.01201153
C        4.89272417       7.06724379      17.05682429       10      -0.00029147       0.00162668      -0.04582125
C        2.46735839       8.46635618      17.07873870       10      -0.00235320      -0.00119744      -0.03250504
C        3.67969265       9.16540707      17.09268399       10       0.00048631       0.00297431      -0.01172452
C        9.73961008       0.06859136      17.11039442       10       0.00258260       0.00001423      -0.02680182
C       10.95043489       0.76920464      17.11201224       10      -0.00036354      -0.00159667      -0.02696313
C        8.52784794       2.16801434      17.11039442       10      -0.00239539       0.00265008      -0.02042658
C        9.73971979       2.86669420      17.11201224       10       0.00308989      -0.00103434      -0.01795960
C        7.31687197       4.26739940      17.07873870       10      -0.00188069       0.00052680      -0.03278789
C        8.52892612       4.96450127      17.08978167       10       0.00299397      -0.00053328       0.02165910
C        6.10724014       6.36861994      17.04221800       10      -0.00078957      -0.00207475      -0.09027830
C        7.31723714       7.06744845      17.00988429       10       0.00089028      -0.00204206       0.16575959
C        4.89203288       8.46657261      17.07873870       10       0.00204435      -0.00029875      -0.02782569
C        6.10151354       9.16817990      17.08978167       10      -0.00209222      -0.00225036       0.01321988
O       -2.38480839       8.47166093      15.19236704       11       0.00360339      -0.00214260      -0.00141039
