132
Lattice="12.12 0.0 0.0 -6.06 10.496227893867395 0.0 0.0 0.0 40.0" Properties=species:S:1:pos:R:3:tags:I:1:forces:R:3 energy=-1210.4753236286404 stress="0.0028376209497839046 9.754679041334133e-06 -9.402854547515318e-06 9.754679041334133e-06 0.00283312067273466 -7.211399874937177e-06 -9.402854547515318e-06 -7.211399874937177e-06 0.002711483453662857" pbc="T T F"
C       -0.13269683       0.13808779      10.00521110        2      -0.00160809      -0.00316574      -0.00374681
Ti      -0.14022551       1.88449009      11.31859749        0      -0.00342864      -0.00047047       0.00182563
Ti       1.38055249       1.01453260       8.71841963        0      -0.00410204      -0.00163996       0.00621413
O       -0.13671631       1.89048466       7.78125858        1      -0.00177585      -0.00213843      -0.00077276
O        1.38389935       1.01139476      12.23008024        3      -0.00125517      -0.00079947      -0.10954129
C       -1.65157889       2.76095613      10.01736995        2       0.00046909      -0.00160896      -0.00106197
Ti      -1.64185079       4.52526561      11.27651807        0      -0.00200640      -0.00302438       0.00347911
Ti      -0.13337059       3.63717565       8.71972361        0      -0.00051550       0.00016729       0.00057622
O       -1.64867399       4.51003851       7.77808804        1      -0.00327020      -0.00518338      -0.00095696
O       -0.12869458       3.64604947      12.23008024        3       0.00172665       0.00065177      -0.28158206
C       -3.16436829       5.39076515       9.99864630        2      -0.00012259      -0.00353361      -0.00260648
Ti      -3.16581350       7.13706449      11.30312864        0      -0.00100995       0.00013240       0.00364436
Ti      -1.65066005       6.26366442       8.70949565        0      -0.00216512       0.00409057      -0.00115145
O       -3.16380559       7.13799125       7.77440392        1       0.00089818      -0.00010612       0.00071675
O       -1.65204005       6.26444922      12.23008024        3      -0.00310173      -0.00298868      -0.15431140
C       -4.67943279       8.01196409      10.00108639        2      -0.00132881       0.00045152      -0.00329277
Ti      -4.67767347       9.75851315      11.30207266        0       0.00113972       0.00069605       0.00151576
Ti      -3.16408776       8.88839368       8.71464186        0      -0.00182952      -0.00895030      -0.00039269
O       -4.67955217       9.76294204       7.77794938        1      -0.00067599       0.00183427      -0.00588637
O       -3.16312448       8.88577776      12.23008024        3       0.00194667       0.00091443      -0.14316842
C        2.89583595       0.13974419      10.00421829        2      -0.00115627       0.00006318      -0.00472838
Ti       2.89541786       1.88728836      11.30259069        0      -0.00208957      -0.00007649      -0.00149521
Ti       4.40978257       1.01489496       8.71645932        0       0.00609485       0.00049467       0.00065157
O        2.89423684       1.88901398       7.77946667        1      -0.00322684      -0.00213312      -0.00456232
O        4.41156559       1.01447639      12.23008024        3      -0.00189878      -0.00365097      -0.15359791
C        1.37893403       2.76270035      10.00859110        2      -0.00044833       0.00149810      -0.00244439
Ti       1.37684365       4.50785103      11.31154778        0      -0.00338026       0.00250891       0.00188350
Ti       2.89545134       3.63890150       8.71680275        0      -0.00045093       0.00502911       0.00375077
O        1.37725541       4.51208339       7.78096061        1       0.00366491      -0.00394055      -0.00143418
O        2.89665543       3.63709149      12.23008024        3       0.00040618       0.00435279      -0.10961883
C       -0.13695435       5.38788188      10.00574199        2       0.00210177      -0.00154571      -0.00127488
Ti      -0.13626627       7.13774289      11.30622924        0      -0.00616348      -0.00212982       0.00105194
Ti       1.38064021       6.26267165       8.71744957        0       0.00079830       0.00072489      -0.00305500
O       -0.13371775       7.13728208       7.77733104        1      -0.00451190      -0.00207018       0.00295657
O        1.37925641       6.26296633      12.23008024        3      -0.00046550      -0.00110302      -0.12090429
C       -1.64916433       8.01244278      10.00270212        2      -0.00085303       0.00021406      -0.00091972
Ti      -1.64993876       9.76161118      11.30100267        0      -0.00314640       0.00256681       0.00357521
Ti      -0.13415643       8.88719800       8.71667489        0       0.00355851      -0.00436862      -0.00338747
O       -1.64863253       9.76230019       7.77752784        1      -0.00174998      -0.00031773      -0.00019676
O       -0.13449465       8.88577458      12.23008024        3      -0.00508242       0.00370232      -0.12659142
C        5.92574348       0.13942003      10.00446987        2      -0.00288048      -0.00237990      -0.00255410
Ti       5.92711484       1.89002822      11.30938672        0       0.00199391      -0.00120334       0.00038535
Ti       7.43901934       1.01544856       8.71200933        0      -0.00468280      -0.00496702      -0.00243211
O        5.92671526       1.88919095       7.77744480        1       0.00057043      -0.00471689       0.00123715
O        7.43873265       1.01458009      12.23008024        3      -0.00045488       0.00190507      -0.13575784
C        4.40995650       2.76417350      10.00362649        2      -0.00249838      -0.00073093      -0.00474999
Ti       4.40688410       4.51222953      11.30328222        0       0.00021921       0.00072714       0.00242323
Ti       5.92478526       3.63856736       8.71383421        0      -0.00286607      -0.00565941       0.00072309
O        4.40905076       4.51080503       7.77598008        1      -0.00018020       0.00224452       0.00109517
O        5.92080760       3.63875635      12.23008024        3      -0.00281006       0.00076924      -0.16998949
C        2.89529286       5.38782295      10.00230190        2      -0.00240988       0.00072077      -0.00065330
Ti       2.89481048       7.13335671      11.30200941        0      -0.00000194      -0.00069145       0.00174252
Ti       4.40974483       6.26309227       8.71163416        0       0.00083914      -0.00223587      -0.00306321
O        2.89311983       7.13834232       7.77605513        1      -0.00225369      -0.00023647       0.00194276
O        4.40969583       6.26156884      12.23008024        3      -0.00207409       0.00024926      -0.16784575
C        1.38046349       8.01102467      10.00375577        2      -0.00100734      -0.00085321       0.00072436
Ti       1.37871153       9.75973163      11.31038320        0      -0.00220173       0.00583934       0.00001116
Ti       2.89597489       8.88536022       8.71818688        0      -0.00229683      -0.00320171      -0.00558459
O        1.38243350       9.76190308       7.77904787        1      -0.00202944       0.00257010       0.00442223
O        2.89172242       8.88006384      12.23008024        3       0.00036709      -0.00204582      -0.14574861
C        8.95488939       0.14240194      10.00997412        2       0.00139825      -0.00348929      -0.00080547
Ti       8.95318057       1.86464950      11.27256182        0      -0.00330919      -0.00478788       0.00423030
Ti      10.47305319       1.01406531       8.71906746        0      -0.00392883      -0.00284955       0.00064315
O        8.95782334       1.88906917       7.77711758        1       0.00088009       0.00097269      -0.00265916
O       10.48344388       0.96938551      12.23008024        3       0.00221675      -0.00564715      -0.72265841
C        7.44291660       2.76049955      10.00512027        2       0.00063333      -0.00092910      -0.00370009
Ti       7.42338816       4.52463261      11.28541191        0      -0.00350871      -0.00161193      -0.00379233
Ti       8.95455775       3.63839286       8.71930961        0       0.00067979      -0.00448195       0.00526223
O        7.44253131       4.51066875       7.77644393        1      -0.00312744      -0.00068102       0.00143197
O        8.91679142       3.67863853      12.23008024        3      -0.00172289      -0.00308936      -0.26713613
C        5.92141629       5.38988947       9.99869080        2       0.00161184      -0.00308969      -0.00406596
Ti       5.92397685       7.13641509      11.30017688        0       0.00045726       0.00010891       0.00000188
Ti       7.44115586       6.26346399       8.71024751        0       0.00255939       0.00385086       0.00125916
O        5.92536882       7.13886499       7.77390137        1      -0.00343578      -0.00498324       0.00154777
O        7.43894856       6.26643813      12.23008024        3      -0.00244594       0.00102903      -0.18455128
C        4.40994475       8.00689448       9.99981166        2      -0.00286915      -0.00083413      -0.00042890
Ti       4.41365389       9.75732234      11.31021713        0      -0.00104441      -0.00087668      -0.00244989
Ti       5.92574811       8.88654932       8.71469157        0      -0.00340804      -0.00432405       0.00164941
O        4.40860689       9.76397471       7.78021115        1       0.00221050      -0.00339720       0.00023076
O        5.92969931       8.88016474      12.23008024        3      -0.00178392      -0.00274293      -0.12352888
C        0.27414506      -0.16269793      15.85678062       10       0.00290541       0.00891597       0.03417171
C        1.48280835       0.53933949      15.86516885       10       0.00032857      -0.00084322       0.06539460
C       -0.91738990       1.92604937      15.83240995       10       0.00363861       0.00498017       0.87918804
C        0.27121159       2.63709168      15.84004869       10       0.00294809       0.00315031       0.09684079
C       -2.15846928       4.07129537      15.83240440       10       0.00343485       0.00371743       0.62985554
C       -0.94689137       4.74425565      15.84004613       10       0.00137085       0.00246688       0.09926234
C       -3.37000666       6.14800734      15.85678007       10       0.00479694       0.00240314       0.05927248
C       -2.15723911       6.84350823      15.86516865       10       0.00510791      -0.00197431       0.06146855
C       -4.58098125       8.23953828      15.85488768       10       0.00249818       0.00426067       0.06641096
C       -3.36921312       8.93884909      15.86617734       10      -0.00192101      -0.00365177       0.03633666
C        2.69281401      -0.15930858      15.86720236       10       0.00228934       0.00411075       0.05115713
C        3.90292527       0.54092743      15.86617725       10      -0.00013556       0.00957394       0.02670423
C        1.48708608       1.93718276      15.85678083       10      -0.00122340       0.00015589       0.02087341
C        2.69295841       2.64061875      15.84772070       10      -0.00019264      -0.00121405       0.04682029
C        0.26646123       4.03997305      15.81392081       10       0.00398266       0.00120044       0.19769271
C        1.47693696       4.73918464      15.82559076       10       0.00504751      -0.00394296       0.02385791
C       -0.94473073       6.14739523      15.85678007       10       0.00751690      -0.00012087       0.02786919
C        0.26745972       6.84098796      15.84772080       10       0.00305058      -0.00091220       0.06352848
C       -2.15732823       8.24131556      15.86720257       10       0.00260832       0.00045443       0.04212183
C       -0.94533333       8.93862638      15.86617734       10       0.00150409       0.00050644       0.03161863
C        5.11329945      -0.15935265      15.86720236       10       0.00135707       0.00962905       0.05184290
C        6.32381121       0.53998895      15.86516885       10       0.00071927      -0.00213854       0.05273621
C        3.90309769       1.94023872      15.85488755       10       0.00240481       0.00743620       0.05805197
C        5.11316257       2.64076778      15.84772070       10       0.00175965       0.00060621       0.04019798
C        2.69058975       4.04000814      15.83383720       10       0.00238828      -0.00244602       0.02243105
C        3.90239248       4.74002733      15.83104934       10       0.00088060       0.00429826       0.07916904
C        1.47855171       6.13994389      15.83383710       10       0.00195271      -0.00457799       0.03150725
C        2.69068730       6.83964813      15.83104923       10      -0.00408878       0.00202331       0.09045803
C        0.26650277       8.23943946      15.85488768       10       0.00754999       0.00404393       0.04452140
C        1.47803870       8.93791181      15.84772055       10       0.00678047      -0.00296782       0.03914314
C        7.53335425      -0.16140957      15.85678062       10       0.00363439       0.00389522       0.04913689
C        8.74799810       0.54226853      15.84004850       10      -0.00129766       0.00400894       0.08786929
C        6.31979878       1.93809216      15.85678083       10       0.00789213      -0.00256956       0.06677372
C        7.53581620       2.63888605      15.84004869       10       0.00101439       0.00314598       0.06683806
C        5.11450488       4.04014754      15.83383720       10       0.00094593      -0.00057975       0.02813357
C        6.32773306       4.74018074      15.82559076       10      -0.00151577      -0.00117240       0.00804808
C        3.90278212       6.13979936      15.82797134       10      -0.00511487       0.00755014       0.01781779
C        5.11463435       6.84031670      15.83104923       10      -0.00110552      -0.00099889       0.06494713
C        2.69047213       8.23922172      15.83383693       10       0.00596407       0.00490369       0.02695392
C        3.90270912       8.94072452      15.82559035       10       0.00461412      -0.00139859      -0.00637651
C        9.96338071      -0.15759786      15.81392076       10       0.00228145       0.00825159       0.21707954
C       11.18050250       0.54061448      15.84004850       10      -0.00642437       0.00220037       0.05334226
C        8.72585148       1.92920723      15.83240995       10       0.00126488       0.00530565       0.55397312
C        9.96216723       2.64539711      15.58805069       10      -0.00277748       0.00605237      -1.55490464
C        7.53839150       4.04134641      15.81392081       10       0.00412463      -0.00008349       0.20603160
C        8.75137594       4.74566909      15.84004613       10       0.00165413       0.00120134       0.06528318
C        6.32679734       6.14059487      15.83383710       10       0.00068773      -0.00115005       0.03369492
C        7.53795390       6.84154837      15.84772080       10       0.00003578      -0.00261076       0.02715610
C        5.11491705       8.23984001      15.83383693       10       0.00735618       0.00582322       0.02171400
C        6.32791956       8.93758593      15.84772055       10      -0.00537138      -0.00149011       0.03735251
O       10.01688485       2.60051396      14.12324652       11       0.00129728      -0.00649815      -0.00351197
H        9.38618683       3.20008314      13.62116589       12      -0.00581081      -0.00232767      -0.00382449
