132
Lattice="12.12 0.0 0.0 -6.06 10.496227893867395 0.0 0.0 0.0 40.0" Properties=species:S:1:pos:R:3:tags:I:1:forces:R:3 energy=-1209.9533330487616 stress="0.0028076928840398085 4.486992776994524e-06 -8.010485106192774e-06 4.486992776994524e-06 0.0028115442316561635 5.424285892825553e-06 -8.010485106192774e-06 5.424285892825553e-06 0.0022734830147462756" pbc="T T F"
C       -0.00033470       0.00042397      10.00536581        2       0.00058941      -0.00066572      -0.00321555
Ti      -0.00351140       1.75202826      11.32006257        0      -0.00024202       0.00072416       0.00116292
Ti       1.51274349       0.87638485       8.69725710        0      -0.00033429       0.00084064       0.00457415
O       -0.00427822       1.75185071       7.77696114        1       0.00036166       0.00042503      -0.00378090
O        1.51411869       0.87718301      12.23159545        3      -0.00043691       0.00087420      -0.02735627
C       -1.51804311       2.62657980      10.01784415        2       0.00045314      -0.00052967      -0.00408076
Ti      -1.51988605       4.37024233      11.30444632        0      -0.00232599      -0.00041592       0.00148144
Ti       0.00039587       3.50235185       8.69507315        0       0.00221204       0.00025128       0.00645088
O       -1.51725638       4.37172333       7.77469483        1       0.00038474       0.00118955      -0.00294001
O        0.00261775       3.50529590      12.23159545        3       0.00076679       0.00059577      -0.08613389
C       -3.03324233       5.25120365      10.00377804        2      -0.00121583       0.00116072      -0.00407770
Ti      -3.03343416       6.99565368      11.30472782        0      -0.00086030       0.00044995       0.00061831
Ti      -1.51358626       6.12400097       8.69337937        0      -0.00088653       0.00169273       0.00295810
O       -3.02952410       6.99744436       7.76930315        1      -0.00286553       0.00039401      -0.00354099
O       -1.51743100       6.12168250      12.23159545        3       0.00009464       0.00053964      -0.01762106
C       -4.54530294       7.87290142      10.00009721        2      -0.00096617       0.00058819      -0.00126999
Ti      -4.54487410       9.62278397      11.30496622        0       0.00075127       0.00112047       0.00273415
Ti      -3.03028242       8.74775038       8.68996464        0      -0.00198501      -0.00076293       0.00779220
O       -4.54580235       9.62445349       7.77037342        1      -0.00174269      -0.00123487      -0.00272139
O       -3.03126119       8.74564868      12.23159545        3      -0.00075040      -0.00015996      -0.03657787
C        3.03119965      -0.00026145      10.00245822        2      -0.00220236       0.00190455      -0.00205364
Ti       3.02988918       1.74995813      11.30424585        0      -0.00105572      -0.00052894       0.00206082
Ti       4.54410449       0.87480052       8.69041479        0      -0.00085847       0.00231744       0.00614493
O        3.02732878       1.74853919       7.76993998        1      -0.00019894       0.00279418      -0.00316832
O        4.54531897       0.87623334      12.23159545        3      -0.00039474       0.00153373      -0.01805579
C        1.51524591       2.62541834      10.00306618        2       0.00095137       0.00059930      -0.00216937
Ti       1.51485233       4.37468739      11.31087070        0      -0.00120106       0.00124984       0.00079082
Ti       3.02814800       3.49773100       8.69404366        0      -0.00063784       0.00182777       0.00482423
O        1.51166460       4.37341192       7.77091075        1       0.00023491       0.00158162      -0.00180098
O        3.03005235       3.49939577      12.23159545        3       0.00090405       0.00079840      -0.00976885
C        0.00057060       5.25152656      10.00152375        2       0.00045334       0.00145894      -0.00240334
Ti      -0.00469576       6.99749787      11.30983740        0      -0.00078522      -0.00032809       0.00053175
Ti       1.51428802       6.12443118       8.69420430        0      -0.00194783       0.00028146       0.00519766
O       -0.00089816       6.99819770       7.76951082        1      -0.00058516       0.00049169      -0.00361338
O        1.51482284       6.12482042      12.23159545        3      -0.00037672       0.00086386      -0.02361914
C       -1.51531314       7.87322052      10.00137874        2      -0.00031314       0.00061232      -0.00331136
Ti      -1.51710832       9.62337436      11.30369644        0      -0.00127329       0.00101737       0.00191171
Ti      -0.00033851       8.74758549       8.69357683        0      -0.00150291       0.00088799       0.00376900
O       -1.51523309       9.62200812       7.76797595        1      -0.00262787       0.00100452      -0.00344016
O       -0.00141919       8.74932699      12.23159545        3      -0.00072737       0.00046308      -0.01611848
C        6.05854073       0.00047679      10.00134029        2      -0.00128455       0.00033449      -0.00357734
Ti       6.06008526       1.75359631      11.30588560        0      -0.00044738       0.00177826       0.00005250
Ti       7.57437465       0.87382407       8.69400330        0      -0.00260229       0.00000702       0.00313080
O        6.06073589       1.74936656       7.76994818        1      -0.00243702       0.00267333      -0.00327983
O        7.57378556       0.87692028      12.23159545        3      -0.00101142      -0.00045416      -0.00693355
C        4.54351056       2.62484367       9.99978344        2      -0.00158380       0.00098638      -0.00106327
Ti       4.54381565       4.37383126      11.30569616        0       0.00097620       0.00208233       0.00303960
Ti       6.05649447       3.50052065       8.68805622        0      -0.00136860       0.00143202       0.00559088
O        4.54213392       4.37334824       7.76620088        1      -0.00221464       0.00349594      -0.00305079
O        6.05536089       3.50171462      12.23159545        3      -0.00026624       0.00137843       0.03923393
C        3.02878239       5.24918655      10.00174810        2      -0.00069745       0.00107656      -0.00173854
Ti       3.02882772       6.99844614      11.30594518        0       0.00089866       0.00001692       0.00304865
Ti       4.54275275       6.12445316       8.68779807        0       0.00036675       0.00029069       0.00803319
O        3.02698211       7.00027990       7.76742699        1      -0.00007281      -0.00060084      -0.00362413
O        4.54449058       6.12390746      12.23159545        3      -0.00117424       0.00071974      -0.02662165
C        1.51378998       7.87330572      10.00267559        2      -0.00175305       0.00074824      -0.00152318
Ti       1.51295916       9.62676431      11.31093616        0       0.00100775       0.00042178       0.00039921
Ti       3.02867070       8.74704791       8.69516349        0      -0.00094758       0.00186245       0.00521704
O        1.51489004       9.62313970       7.77057814        1      -0.00064030       0.00004071      -0.00294858
O        3.02830890       8.74677605      12.23159545        3      -0.00081646      -0.00014773      -0.02103141
C        9.08812228      -0.00070174      10.00421013        2      -0.00118424      -0.00118408      -0.00317347
Ti       9.09157544       1.75321429      11.30306432        0      -0.00047204       0.00294113       0.00379405
Ti      10.60278971       0.87404090       8.69669297        0       0.00077899      -0.00098904       0.00613162
O        9.09048266       1.75211685       7.77592371        1      -0.00073690      -0.00059736      -0.00275235
O       10.60165361       0.87013382      12.23159545        3       0.00055456      -0.00150662      -0.11535025
C        7.57024473       2.62588542      10.00546172        2      -0.00211684       0.00060620      -0.00371612
Ti       7.56716642       4.37809089      11.28623906        0       0.00238935      -0.00148686       0.00118584
Ti       9.08698802       3.50107348       8.69761875        0       0.00010764      -0.00012764       0.00450879
O        7.57543231       4.37311889       7.76942042        1      -0.00004957       0.00035841      -0.00197894
O        9.07271169       3.50836537      12.23159545        3      -0.00110251       0.00117861      -0.02357355
C        6.05220786       5.25227187       9.99414812        2      -0.00141406       0.00107975      -0.00093037
Ti       6.05967306       6.99768335      11.30544220        0      -0.00139301      -0.00183218       0.00292931
Ti       7.57259375       6.12506110       8.68854241        0      -0.00182140       0.00004990       0.00550568
O        6.05891249       7.00080961       7.76668570        1      -0.00304755       0.00007159      -0.00294551
O        7.57155917       6.12413447      12.23159545        3      -0.00127116      -0.00053256      -0.00085474
C        4.54372791       7.87235872      10.00194035        2      -0.00044778       0.00029960      -0.00235408
Ti       4.54469397       9.62169777      11.31431091        0      -0.00133465       0.00012315      -0.00021393
Ti       6.06027360       8.74889050       8.69530006        0      -0.00203422      -0.00054677       0.00502223
O        4.54383360       9.62523540       7.77315289        1      -0.00077163      -0.00050402      -0.00216544
O        6.06070485       8.74482891      12.23159545        3       0.00046479      -0.00164143      -0.02770173
C        0.07161232       0.05087022      16.71092741       10       0.00191720       0.00382688       0.01636597
C        1.27887654       0.75481176      16.71931564       10      -0.00048353       0.00207666       0.02977397
C       -1.11660303       2.13691314      16.68655674       10       0.00050797       0.00047389       0.69737298
C        0.06907285       2.85312506      16.69419548       10      -0.00326819       0.00188446       0.02259447
C       -2.36257692       4.29150202      16.68655119       10       0.00193049      -0.00529169       0.38473765
C       -1.15083193       4.96190374      16.69419292       10      -0.00136162      -0.00072446       0.04134076
C       -3.57538962       6.36787629      16.71092686       10       0.00527842      -0.00258980       0.00155285
C       -2.36239846       7.05909403      16.71931544       10       0.00421052       0.00143862       0.01681201
C       -4.78530673       8.45500843      16.70903447       10       0.00083078       0.00180989       0.01950058
C       -3.57267569       9.15424877      16.72032413       10      -0.00153327       0.00078677      -0.00056215
C        2.48950288       0.05593766      16.72134915       10      -0.00008358       0.00169586       0.02793099
C        3.69863807       0.75723691      16.72032404       10       0.00034252      -0.00298888       0.00622607
C        1.28483172       2.15165641      16.71092762       10      -0.00341043       0.00180658       0.01819089
C        2.48934844       2.85701922      16.70186749       10      -0.00006644      -0.00482875       0.00883835
C        0.06620306       4.25750831      16.66806760       10      -0.00111345       0.00106469       0.00078555
C        1.27313656       4.95604964      16.67973755       10       0.00195654      -0.00280610      -0.00607624
C       -1.15112255       6.36554143      16.71092686       10       0.00349324       0.00056767       0.02123874
C        0.06176096       7.05761777      16.70186759       10       0.00472034      -0.00196964      -0.00011355
C       -2.36263096       8.45850658      16.72134936       10       0.00163974       0.00323378       0.02270189
C       -1.15092578       9.15527590      16.72032413       10       0.00262135       0.00072714       0.00370067
C        4.90647651       0.05652239      16.72134915       10       0.00033597       0.00033403       0.01743399
C        6.11798794       0.75585995      16.71931564       10       0.00161708      -0.00238143       0.03027281
C        3.69804064       2.15637402      16.70903434       10       0.00002087      -0.00539401       0.02155244
C        4.90710235       2.85734188      16.70186749       10       0.00059687      -0.00345182       0.03833683
C        2.48642670       4.25512298      16.68798399       10       0.00165524      -0.00442990       0.00472854
C        3.69802592       4.95651914      16.68519613       10      -0.00049019      -0.00036090       0.01368317
C        1.27223234       6.35651759      16.68798389       10       0.00503490      -0.00167915       0.01901163
C        2.48532409       7.05508164      16.68519602       10       0.00495570      -0.00305073       0.00008331
C        0.05995300       8.45605632      16.70903447       10       0.00314503      -0.00139025       0.02558964
C        1.27129891       9.15353792      16.70186734       10       0.00619486      -0.00557970       0.00919507
C        7.32448872       0.05354991      16.71092741       10       0.00263110      -0.00245867       0.00720413
C        8.54007107       0.75483548      16.69419529       10       0.00042532       0.00310779       0.03526357
C        6.11076301       2.15186186      16.71092762       10       0.00316403      -0.00170860       0.00215073
C        7.32703024       2.85255387      16.69419548       10       0.00284880      -0.00085428       0.05072091
C        4.90926038       4.25510325      16.68798399       10      -0.00198928      -0.00111925       0.01695570
C        6.12193749       4.95611524      16.67973755       10      -0.00217205      -0.00032040       0.01127192
C        3.69782211       6.35566586      16.68211813       10       0.00109886      -0.00153162      -0.01061279
C        4.90940710       7.05461909      16.68519602       10      -0.00092827      -0.00192585       0.00504457
C        2.48409903       8.45579927      16.68798372       10       0.00568247      -0.00479354       0.00573488
C        3.69684547       9.15478654      16.67973714       10       0.00159474      -0.00045394      -0.01352396
C        9.75781430       0.05297680      16.66806755       10       0.00094263       0.00319285       0.01375221
C       10.97607830       0.75296029      16.69419529       10      -0.00186603       0.00181179       0.03496914
C        8.51521619       2.13965272      16.68655674       10       0.00389258       0.00364957       0.38395667
C        9.75646937       2.85755267      16.44219748       10       0.00315164      -0.00179623      -1.76819277
C        7.32914860       4.25900783      16.66806760       10      -0.00141851      -0.00078857      -0.03085910
C        8.54600211       4.96420725      16.69419292       10       0.00039408      -0.00337573       0.05004796
C        6.12271528       6.35674103      16.68798389       10       0.00013291       0.00047540       0.02107229
C        7.33215240       7.05729067      16.70186759       10       0.00145078       0.00054915       0.02752457
C        4.91113744       8.45475266      16.68798372       10      -0.00017040      -0.00108897       0.01585099
C        6.12367765       9.15128799      16.70186734       10      -0.00465450       0.00123764       0.01854448
O        9.85485570       2.79922428      14.91624947       11      -0.00531177      -0.00577693       0.00283980
H        9.11867420       3.26682524      14.47754258       12       0.00401960      -0.00065201       0.00359983
