131
Lattice="12.12 0.0 0.0 -6.06 10.496227893867395 0.0 0.0 0.0 40.0" Properties=species:S:1:pos:R:3:tags:I:1:forces:R:3 energy=-1203.9587212375616 stress="0.0028764854560611236 1.1865494553273602e-07 -7.111756660195312e-07 1.1865494553273602e-07 0.0028767350910244146 -2.918244854521638e-07 -7.111756660195312e-07 -2.918244854521638e-07 0.0019223652504132506" pbc="T T F"
C       -0.00086761       0.00040738      10.00198335        2      -0.00005943      -0.00008184      -0.00052271
Ti      -0.00039508       1.74940009      11.29155086        0      -0.00003961      -0.00027577      -0.00008887
Ti       1.51478565       0.87451224       8.71245927        0      -0.00001970      -0.00019807      -0.00015713
O        0.00063570       1.74914584       7.77166248        1      -0.00056404       0.00019162       0.00017231
O        1.51348766       0.87714214      12.23008024        3      -0.00011191      -0.00015164       0.06702387
C       -1.51516873       2.62384821      10.00106113        2      -0.00030152      -0.00007733       0.00027073
Ti      -1.51529073       4.37293988      11.29204402        0      -0.00014001       0.00022191       0.00012069
Ti      -0.00010014       3.49882549       8.71081039        0      -0.00032749      -0.00005246       0.00011369
O       -1.51509644       4.37466339       7.77246024        1      -0.00007821      -0.00079426       0.00001789
O        0.00051835       3.49858046      12.23008024        3      -0.00012144      -0.00011403       0.08263180
C       -3.03016534       5.24757463      10.00351434        2       0.00006738       0.00025251      -0.00072486
Ti      -3.02990620       6.99871520      11.30483648        0       0.00017035       0.00058315       0.00016674
Ti      -1.51526298       6.12266755       8.71435410        0      -0.00012367       0.00011625      -0.00085387
O       -3.02966327       6.99856106       7.77615901        1      -0.00031127      -0.00060802      -0.00182962
O       -1.51351225       6.12009991      12.23008024        3       0.00013332       0.00004073       0.06451273
C       -4.54526787       7.87211311      10.00552956        2       0.00022785       0.00005902      -0.00156615
Ti      -4.54478286       9.62132282      11.29836517        0       0.00058670      -0.00035439       0.00029560
Ti      -3.03007002       8.74687099       8.71684627        0      -0.00012692      -0.00002453      -0.00280665
O       -4.54379558       9.62083800       7.77484241        1      -0.00079043       0.00036009      -0.00130509
O       -3.03179842       8.74761064      12.23008024        3      -0.00007969      -0.00000946       0.04301436
C        3.02981304       0.00009855      10.00576496        2      -0.00000658      -0.00033097      -0.00166597
Ti       3.02965694       1.74897326      11.29314401        0      -0.00004764      -0.00037841      -0.00013779
Ti       4.54509672       0.87431502       8.71354692        0      -0.00009557      -0.00009922      -0.00071465
O        3.03016369       1.74834501       7.77290403        1      -0.00021602       0.00044147      -0.00025113
O        4.54583017       0.87827639      12.23008024        3      -0.00007780      -0.00014679       0.08567965
C        1.51491939       2.62424976      10.00143094        2      -0.00018567      -0.00026667      -0.00011884
Ti       1.51485447       4.37312615      11.29171535        0      -0.00010002      -0.00004218      -0.00012284
Ti       3.02994675       3.49847500       8.71078624        0      -0.00011009      -0.00006502      -0.00006972
O        1.51485430       4.37372969       7.77153286        1      -0.00009761      -0.00022124       0.00019062
O        3.03060784       3.49958077      12.23008024        3      -0.00001552      -0.00017649       0.07856827
C        0.00004495       5.24783458      10.00240272        2      -0.00030155      -0.00003096      -0.00047576
Ti      -0.00103487       6.99802156      11.29695621        0      -0.00043172       0.00019767       0.00008439
Ti       1.51453172       6.12303417       8.71172460        0      -0.00010282      -0.00003886      -0.00013921
O       -0.00109937       6.99813237       7.77446786        1       0.00044797      -0.00036368      -0.00084303
O        1.51685415       6.12165849      12.23008024        3      -0.00021353       0.00000654       0.06873231
C       -1.51533141       7.87226380      10.00769702        2      -0.00026737       0.00006518      -0.00206938
Ti      -1.51610547       9.62065212      11.30602917        0      -0.00045467      -0.00040774       0.00016329
Ti      -0.00006211       8.74711186       8.71454816        0      -0.00019438      -0.00007438      -0.00104909
O       -1.51575946       9.62071505       7.77639971        1       0.00027962       0.00042420      -0.00197800
O        0.00321798       8.74662067      12.23008024        3      -0.00001087      -0.00028105       0.05820719
C        6.06031822       0.00029175      10.00381881        2      -0.00024781      -0.00027656      -0.00084670
Ti       6.06027819       1.74925965      11.29169656        0      -0.00034434      -0.00028033       0.00008011
Ti       7.57497154       0.87466607       8.71100475        0      -0.00031472      -0.00019302       0.00002016
O        6.05923149       1.74864981       7.77212109        1       0.00036104       0.00037172       0.00014424
O        7.57548145       0.87569571      12.23008024        3      -0.00037912      -0.00004561       0.07645742
C        4.54499091       2.62413647      10.00147684        2      -0.00005021      -0.00030006      -0.00022658
Ti       4.54514656       4.37324369      11.29171079        0      -0.00011158      -0.00000078      -0.00002065
Ti       6.06003138       3.49865431       8.71050228        0       0.00014732      -0.00014477       0.00033498
O        4.54491167       4.37338988       7.77106886        1      -0.00004169      -0.00008433       0.00025929
O        6.05969464       3.49898230      12.23008024        3       0.00008295      -0.00010887       0.07368842
C        3.03002919       5.24805672      10.00114023        2      -0.00014414      -0.00000554       0.00001431
Ti       3.03013065       6.99765986      11.29172343        0      -0.00008357      -0.00005533      -0.00013224
Ti       4.54514192       6.12289439       8.71071106        0      -0.00005803      -0.00000320      -0.00012642
O        3.02960177       6.99744733       7.77151526        1       0.00004441       0.00004825       0.00018055
O        4.54471911       6.12179254      12.23008024        3       0.00008446      -0.00005647       0.08133699
C        1.51522416       7.87218068      10.00244142        2      -0.00023009       0.00013343      -0.00053031
Ti       1.51524780       9.62195892      11.29215988        0      -0.00039168      -0.00012891       0.00014601
Ti       3.02983651       8.74687736       8.71081211        0      -0.00016581       0.00016864       0.00020961
O        1.51380260       9.62097316       7.77258255        1       0.00061964       0.00033375      -0.00003843
O        3.03033786       8.74630044      12.23008024        3      -0.00013509      -0.00003053       0.07985242
C        9.09011866       0.00020225      10.00110546        2      -0.00013791       0.00017066       0.00028753
Ti       9.09003890       1.74933864      11.29149543        0      -0.00010799      -0.00001680      -0.00017467
Ti      10.60500566       0.87465435       8.71069405        0      -0.00001790      -0.00005743      -0.00078789
O        9.08972854       1.74943833       7.77113053        1       0.00000075      -0.00003313       0.00037417
O       10.60482485       0.87480111      12.23008024        3       0.00009004      -0.00012222       0.06311869
C        7.57505280       2.62396188      10.00094055        2       0.00011312      -0.00017764       0.00023307
Ti       7.57510708       4.37307016      11.29152208        0       0.00001576       0.00030406       0.00003229
Ti       9.08997973       3.49873110       8.71088717        0      -0.00007390       0.00023611      -0.00000317
O        7.57514903       4.37429111       7.77195771        1      -0.00016983      -0.00056968       0.00020917
O        9.08920939       3.49795766      12.23008024        3      -0.00023776       0.00024792       0.08072893
C        6.05983956       5.24795649      10.00126076        2       0.00013233       0.00007966      -0.00025143
Ti       6.06005974       6.99774176      11.29289132        0       0.00030925       0.00019105       0.00001099
Ti       7.57533000       6.12282377       8.71323010        0      -0.00004050       0.00001676      -0.00052070
O        6.06087442       6.99782468       7.77273221        1      -0.00052356      -0.00016542      -0.00024744
O        7.57189078       6.11973370      12.23008024        3      -0.00012302      -0.00010162       0.08202138
C        4.54475058       7.87206494      10.00136820        2       0.00004413       0.00018790      -0.00010300
Ti       4.54476744       9.62177707      11.29154439        0       0.00007370       0.00003586      -0.00015908
Ti       6.06001562       8.74707773       8.71235906        0       0.00005419      -0.00000164      -0.00019142
O        4.54544087       9.62107978       7.77163009        1      -0.00048232       0.00026451       0.00016850
O        6.05701832       8.74644201      12.23008024        3       0.00000935       0.00000414       0.07064436
C        0.04139173       0.06988687      17.81560003       10       0.00526919       0.00049607      -0.00988829
C        1.25197383       0.76930483      17.80030798       10       0.00038449      -0.00172980       0.03942232
C       -1.16853782       2.16802303      17.82092073       10      -0.00046044       0.00075058      -0.01890518
C        0.04332554       2.86761903      17.80321030       10      -0.00035797       0.00097295       0.00979633
C       -2.38041784       4.26505375      17.81560003       10      -0.00322198       0.00061789       0.01647132
C       -1.16936570       4.96357273      17.80030798       10      -0.00087765       0.00083374       0.02966769
C       -3.58742878       6.36769345      17.75248928       10      -0.00250173       0.00062525      -0.01778453
C       -2.38040115       7.04893943      17.71066706       10       0.00042018      -0.00030462      -0.44555969
C       -4.80098665       8.46955320      17.75248928       10       0.00328326      -0.00062200      -0.02302559
C       -3.60740732       9.17414305      17.71066706       10       0.00006993      -0.00187290      -0.43425584
C        2.46584725       0.06385098      17.75248928       10       0.00271012      -0.00210164      -0.02447392
C        3.67932342       0.76674487      17.72041060       10       0.00332309       0.00175218       0.17431176
C        1.25484559       2.16736532      17.78926501       10       0.00119770      -0.00106167      -0.02400999
C        2.46705813       2.86651602      17.76735060       10       0.00029193       0.00088987      -0.03023945
C        0.04275804       4.26699744      17.78926501       10       0.00054809      -0.00105224      -0.01151224
C        1.25443635       4.96698504      17.76735060       10      -0.00187068       0.00056293      -0.03863548
C       -1.17338934       6.36754226      17.75248928       10       0.00072687       0.00121189      -0.01091458
C        0.04213056       7.06697344      17.72041060       10      -0.00037954      -0.00098627       0.15967237
C       -2.38018790       8.46573675      17.25786140       10       0.00156418      -0.00193199       0.25901725
C       -1.15344055       9.17415238      17.71066706       10       0.00070681       0.00148165      -0.45134553
C        4.89289774       0.06390561      17.75248928       10      -0.00011987      -0.00262573      -0.01514538
C        6.10682414       0.76918127      17.80030798       10       0.00076683       0.00131533       0.02571058
C        3.67954696       2.16396248      17.75274431       10      -0.00136013       0.00182825      -0.08039434
C        4.89207164       2.86647467      17.76735060       10      -0.00031524       0.00049456      -0.04375391
C        2.46689497       4.26668943      17.76466899       10      -0.00159882       0.00028222       0.00284605
C        3.67971557       4.96683012      17.75966822       10      -0.00068573       0.00127647      -0.03774980
C        1.25219726       6.36834124      17.75274431       10       0.00060589      -0.00013782      -0.07236284
C        2.46691575       7.06707820      17.76735060       10       0.00083435       0.00120677      -0.04109616
C        0.04009449       8.46937935      17.75248928       10       0.00014830      -0.00150784      -0.00997576
C        1.25797177       9.16779600      17.80030798       10       0.00040666       0.00351915       0.02710191
C        7.31734417       0.06969346      17.81560003       10      -0.00079153      -0.00120111       0.01839845
C        8.52857265       0.76906936      17.82253855       10       0.00026618       0.00109009      -0.00266886
C        6.10417099       2.16721543      17.78926501       10      -0.00049833       0.00271755      -0.02337947
C        7.31570804       2.86763358      17.80321030       10      -0.00104168      -0.00061204      -0.00422142
C        4.89248115       4.26667357      17.76466899       10      -0.00069685       0.00121271      -0.01051663
C        6.10490470       4.96711459      17.76735060       10      -0.00165406       0.00113440      -0.04976936
C        3.67968121       6.36726313      17.76466899       10      -0.00135715      -0.00044520       0.00568896
C        4.89237716       7.06717067      17.76735060       10      -0.00040125       0.00144198      -0.03497948
C        2.46734301       8.46640576      17.78926501       10      -0.00170692      -0.00128306      -0.01148644
C        3.67950316       9.16554346      17.80321030       10       0.00092538       0.00231993       0.00977121
C        9.73937635       0.06864539      17.82092073       10       0.00196048      -0.00025821      -0.01143892
C       10.95014880       0.76921665      17.82253855       10      -0.00028310      -0.00158138      -0.00111688
C        8.52745709       2.16790991      17.82092073       10      -0.00176919       0.00179588      -0.02184588
C        9.73940864       2.86639216      17.82253855       10       0.00277260      -0.00106155      -0.00158181
C        7.31650244       4.26704796      17.78926501       10      -0.00178276       0.00017861      -0.03137907
C        8.52856412       4.96371960      17.80030798       10       0.00245407      -0.00051905       0.02515722
C        6.10704972       6.36845800      17.75274431       10      -0.00126133      -0.00232340      -0.08091998
C        7.31702356       7.06719172      17.72041060       10       0.00039841      -0.00177020       0.17194938
C        4.89176025       8.46653463      17.78926501       10       0.00169805      -0.00065161      -0.02159927
C        6.10113115       9.16806713      17.80030798       10      -0.00117542      -0.00215316       0.03899658
O       -2.37977885       8.46572870      15.90637697       11       0.00107796       0.00065621      -0.00271658
