132
Lattice="12.12 0.0 0.0 -6.06 10.496227893867395 0.0 0.0 0.0 40.0" Properties=species:S:1:pos:R:3:tags:I:1:forces:R:3 energy=-1209.7756791705285 stress="0.002844041019981429 2.8557295888402544e-06 -2.5877475228978566e-06 2.8557295888402544e-06 0.002846814368624989 -6.135649658459546e-07 -2.5877475228978566e-06 -6.135649658459546e-07 0.002203152671188538" pbc="T T F"
C        0.00189337      -0.00202988      10.00516061        2      -0.00042868      -0.00006448      -0.00219387
Ti      -0.00038093       1.74887905      11.30449709        0      -0.00053356      -0.00033013       0.00337727
Ti       1.51609492       0.87338671       8.71433115        0      -0.00115748       0.00015255       0.00051692
O       -0.00019695       1.74856955       7.77821693        1       0.00016640      -0.00042419      -0.00083925
O        1.51940827       0.87124706      12.23008024        3      -0.00009456      -0.00028540       0.11299568
C       -1.51409224       2.62251687      10.01298628        2      -0.00005828       0.00008341      -0.00337228
Ti      -1.51127349       4.37102986      11.30476045        0       0.00122237       0.00034986       0.00271746
Ti       0.00183794       3.49743128       8.71758538        0      -0.00070209      -0.00082983      -0.00216091
O       -1.51422855       4.37020920       7.77932696        1      -0.00066640      -0.00008881      -0.00195162
O        0.00530627       3.49779084      12.23008024        3       0.00159231       0.00095148       0.09337502
C       -3.02844362       5.24629380      10.00758005        2       0.00040867      -0.00025089      -0.00139943
Ti      -3.02949033       6.99594578      11.29208197        0       0.00099277      -0.00089709       0.00148004
Ti      -1.51327963       6.12055045       8.71517224        0       0.00004671      -0.00030347      -0.00119508
O       -3.02813911       6.99451084       7.77409551        1      -0.00002352       0.00013965       0.00082131
O       -1.51383148       6.12505277      12.23008024        3       0.00044115       0.00083789       0.11430404
C       -4.54352312       7.87049588      10.00268878        2      -0.00039429       0.00016493      -0.00048789
Ti      -4.54323434       9.61993253      11.29279279        0      -0.00139529      -0.00002798       0.00195804
Ti      -3.02841114       8.74505782       8.71202000        0      -0.00056119      -0.00054876       0.00044195
O       -4.54372981       9.62037366       7.77331087        1      -0.00053937       0.00020087       0.00145548
O       -3.02814390       8.74615661      12.23008024        3      -0.00015941      -0.00031856       0.11729721
C        3.03154528      -0.00158761      10.00240267        2      -0.00004379      -0.00010328       0.00050235
Ti       3.03156081       1.74787209      11.29272961        0      -0.00116553      -0.00000748       0.00165891
Ti       4.54667874       0.87316096       8.71255513        0       0.00024216       0.00012752       0.00004939
O        3.03114563       1.74776250       7.77329213        1      -0.00068047      -0.00017783       0.00151626
O        4.54490006       0.87170717      12.23008024        3      -0.00006092      -0.00066234       0.11011701
C        1.51699625       2.62263921      10.00485381        2      -0.00023979      -0.00000979      -0.00170819
Ti       1.51796645       4.37243229      11.29188715        0      -0.00165119      -0.00094694       0.00166850
Ti       3.03147358       3.49709174       8.71231028        0      -0.00102978      -0.00145889       0.00098155
O        1.51445177       4.37086716       7.77450330        1       0.00185272       0.00019191      -0.00001895
O        3.03175714       3.49665630      12.23008024        3       0.00069973       0.00087752       0.11269767
C        0.00190949       5.24692976      10.00592347        2       0.00018376      -0.00026620      -0.00175629
Ti       0.00161524       6.99568646      11.29291312        0      -0.00117787      -0.00007770       0.00172943
Ti       1.51665973       6.12140324       8.71245458        0      -0.00019188      -0.00024271       0.00090815
O        0.00076413       6.99509278       7.77368244        1      -0.00011817      -0.00067433       0.00020818
O        1.51715973       6.12229164      12.23008024        3       0.00069699      -0.00019093       0.10072214
C       -1.51350911       7.87044325      10.00276701        2      -0.00023033       0.00008518      -0.00043727
Ti      -1.51340750       9.61977106      11.29314915        0      -0.00069155      -0.00046977       0.00080275
Ti       0.00157802       8.74511436       8.71234892        0      -0.00024228       0.00017124       0.00073647
O       -1.51333628       9.61997097       7.77265101        1       0.00041546      -0.00036823       0.00109783
O        0.00104535       8.74490921      12.23008024        3      -0.00170136       0.00044991       0.09924468
C        6.06149058      -0.00196286      10.00319440        2      -0.00049614      -0.00026315      -0.00070046
Ti       6.06149979       1.74831342      11.29329863        0       0.00151522      -0.00101565       0.00208736
Ti       7.57702882       0.87293483       8.71589579        0       0.00035546      -0.00017315      -0.00111561
O        6.06307948       1.74793194       7.77473850        1      -0.00079077      -0.00055131       0.00067567
O        7.57223325       0.87057244      12.23008024        3      -0.00120654      -0.00054936       0.11733516
C        4.54622246       2.62257305      10.00291150        2      -0.00061551      -0.00018290      -0.00037959
Ti       4.54530444       4.37206865      11.29208033        0       0.00086268      -0.00104057       0.00134390
Ti       6.06121627       3.49735796       8.71323714        0      -0.00016788      -0.00100912       0.00023578
O        4.54711931       4.37100191       7.77270800        1      -0.00046608       0.00054344       0.00072923
O        6.05990949       3.49711573      12.23008024        3      -0.00064072      -0.00029061       0.09035591
C        3.03197714       5.24682596      10.00208815        2       0.00057151       0.00017558      -0.00100916
Ti       3.03131899       6.99578937      11.29252583        0       0.00041504       0.00018689       0.00141253
Ti       4.54648201       6.12132180       8.71224424        0      -0.00084724       0.00017318      -0.00280602
O        3.03107288       6.99620287       7.77231627        1      -0.00054484       0.00012758       0.00052546
O        4.54595742       6.12144953      12.23008024        3       0.00041712      -0.00047484       0.11648529
C        1.51655740       7.87022000      10.00231172        2      -0.00025460      -0.00029245      -0.00012523
Ti       1.51630826       9.61809877      11.29232785        0      -0.00047057       0.00129463       0.00182799
Ti       3.03163794       8.74496445       8.71271283        0      -0.00028618      -0.00027222       0.00122614
O        1.51700170       9.62100057       7.77399688        1       0.00017278       0.00017522       0.00032116
O        3.03165550       8.74333086      12.23008024        3      -0.00013932      -0.00057390       0.10968905
C        9.09150519      -0.00258555      10.00695963        2      -0.00032570      -0.00024050      -0.00229318
Ti       9.09320564       1.74485750      11.30830330        0       0.00031180      -0.00187402       0.00395046
Ti      10.60648206       0.87271759       8.71821502        0      -0.00027579       0.00072078      -0.00228787
O        9.09234031       1.74863443       7.77996516        1      -0.00034649       0.00048904      -0.00248507
O       10.60960111       0.86889001      12.23008024        3      -0.00016942      -0.00114413       0.07177739
C        7.57646535       2.62206802      10.00826038        2      -0.00004062      -0.00050983      -0.00194553
Ti       7.57261315       4.37382093      11.28943535        0      -0.00045175       0.00054270       0.00072910
Ti       9.09155704       3.49683355       8.72179997        0       0.00031932      -0.00053100      -0.00268367
O        7.57864804       4.37028045       7.77638437        1      -0.00210824       0.00121128       0.00014922
O        9.08598754       3.49963767      12.23008024        3       0.00119172      -0.00085819       0.24864596
C        6.05972071       5.24740216      10.00263467        2       0.00008988      -0.00054632      -0.00114972
Ti       6.06092935       6.99584114      11.29256675        0       0.00130978       0.00010197       0.00146227
Ti       7.57629837       6.12099780       8.71284946        0       0.00022466       0.00043807       0.00015296
O        6.06245921       6.99589993       7.77279201        1      -0.00110259      -0.00091503       0.00035607
O        7.57550172       6.12231232      12.23008024        3      -0.00015163       0.00003528       0.11357895
C        4.54663284       7.86955043      10.00218594        2      -0.00009406      -0.00094259      -0.00137680
Ti       4.54708272       9.61817467      11.29334783        0      -0.00081476       0.00198533       0.00211533
Ti       6.06164882       8.74524265       8.71278264        0       0.00046071       0.00110295       0.00063085
O        4.54630340       9.62213706       7.77507924        1       0.00016822      -0.00181335      -0.00052934
O        6.06289806       8.74465769      12.23008024        3      -0.00053829      -0.00135218       0.11126716
C        0.06345756       0.05742656      17.13572799       10       0.00272025       0.00030318      -0.03954088
C        1.27282663       0.75901027      17.14411622       10      -0.00115477       0.00183847      -0.01935056
C       -1.13242812       2.14794537      17.11135732       10       0.00215653       0.00026491       0.48401238
C        0.06023264       2.85660789      17.11899606       10       0.00063059       0.00237142       0.01885762
C       -2.36715917       4.28428891      17.11135177       10      -0.00212255       0.00025426       0.26053924
C       -1.15573788       4.96205466      17.11899350       10      -0.00148908       0.00206669       0.03045085
C       -3.57900480       6.36582773      17.13572744       10       0.00091875       0.00134602       0.00512039
C       -2.36626610       7.06187666      17.14411602       10       0.00152200       0.00102259       0.00221278
C       -4.79010576       8.45868381      17.13383505       10       0.00201392       0.00046464      -0.01734583
C       -3.57817796       9.15789234      17.14512471       10      -0.00175606       0.00076927      -0.03738559
C        2.48325490       0.06009001      17.14614973       10       0.00036003       0.00024904      -0.03441522
C        3.69371278       0.76061923      17.14512462       10       0.00026369       0.00040517      -0.03017880
C        1.27587912       2.15708399      17.13572820       10       0.00208895       0.00155200      -0.04168061
C        2.48316586       2.85964956      17.12666807       10       0.00154585      -0.00001067      -0.03389231
C        0.05708964       4.25892220      17.09286818       10      -0.00083269       0.00157092       0.12709054
C        1.26783440       4.95817114      17.10453813       10      -0.00118684       0.00016447      -0.07409118
C       -1.15375215       6.36466766      17.13572744       10       0.00002451       0.00273038      -0.01651201
C        0.05819420       7.05987992      17.12666817       10       0.00047821      -0.00061055      -0.03954001
C       -2.36627450       8.45996942      17.14614994       10      -0.00021798       0.00236194      -0.03620263
C       -1.15430867       9.15792391      17.14512471       10       0.00037232       0.00049113      -0.03792284
C        4.90426732       0.06024414      17.14614973       10      -0.00121876      -0.00125025      -0.02878708
C        6.11515731       0.75947114      17.14411622       10      -0.00137441      -0.00028717       0.00632959
C        3.69358534       2.15975858      17.13383492       10       0.00155108      -0.00002180      -0.01352448
C        4.90414852       2.85992387      17.12666807       10       0.00154529      -0.00028504      -0.03960147
C        2.48138786       4.25909432      17.11278457       10       0.00077198      -0.00032720      -0.04428655
C        3.69316470       4.95927492      17.10999671       10      -0.00038177      -0.00064594      -0.01448670
C        1.26941581       6.35891360      17.11278447       10       0.00167023       0.00015846      -0.05334037
C        2.48129674       7.05877597      17.10999660       10       0.00045343      -0.00150904      -0.01322920
C        0.05748253       8.45851378      17.13383505       10      -0.00007606       0.00029656      -0.02591938
C        1.26907911       9.15717350      17.12666792       10      -0.00052482      -0.00015752      -0.04337916
C        7.32524801       0.05827663      17.13572799       10      -0.00201150      -0.00119478      -0.00913570
C        8.53893291       0.76138057      17.11899587       10      -0.00286340       0.00131328       0.02974100
C        6.11176381       2.15768532      17.13572820       10      -0.00010063       0.00021716      -0.00310020
C        7.32693702       2.85782508      17.11899606       10      -0.00001397       0.00033661      -0.00349355
C        4.90520381       4.25942228      17.11278457       10      -0.00044374       0.00063173      -0.04425443
C        6.11874633       4.95891380      17.10453813       10      -0.00102063       0.00116689      -0.06519137
C        3.69323714       6.35910462      17.10691871       10       0.00304869      -0.00057159      -0.04882394
C        4.90534185       7.05928293      17.10999660       10       0.00149249      -0.00023928      -0.01604547
C        2.48140668       8.45818326      17.11278430       10       0.00128322      -0.00144037      -0.04842949
C        3.69357961       9.15990117      17.10453772       10      -0.00130381       0.00094588      -0.08234017
C        9.75373519       0.06183465      17.09286813       10      -0.00016210       0.00013279       0.13807505
C       10.96981128       0.76036913      17.11899587       10      -0.00109359      -0.00048457       0.00937124
C        8.52067790       2.14992265      17.11135732       10      -0.00017685       0.00159370       0.22752160
C        9.75221362       2.86234763      16.86699806       10       0.00231953      -0.00056495      -2.11500603
C        7.32964678       4.25994415      17.09286818       10      -0.00295648       0.00111179       0.13340127
C        8.54248501       4.96358805      17.11899350       10       0.00016377      -0.00074218       0.00589190
C        6.11745755       6.35959561      17.11278447       10       0.00188384       0.00097040      -0.03532811
C        7.32882111       7.06032617      17.12666817       10       0.00364200      -0.00187394      -0.03172325
C        4.90577316       8.45877703      17.11278430       10       0.00226304       0.00022485      -0.04536480
C        6.11851248       9.15695353      17.12666792       10      -0.00053922      -0.00111794      -0.04198656
O        9.82958458       2.81078430      15.28737978       11      -0.00454291      -0.00818409       0.00039369
H        9.10341589       3.32130608      14.88228630       12       0.00431808       0.00554679      -0.00021298
