131
Lattice="12.12 0.0 0.0 -6.06 10.496227893867395 0.0 0.0 0.0 40.0" Properties=species:S:1:pos:R:3:tags:I:1:forces:R:3 energy=-1204.1332612387118 stress="0.0028777997467625527 3.5319344935742696e-07 -9.657589392136585e-07 3.5319344935742696e-07 0.002877367479847231 1.3085224558917909e-06 -9.657589392136585e-07 1.3085224558917909e-06 0.001972901150159223" pbc="T T F"
C       -0.00092980       0.00061276      10.00237929        2      -0.00004927       0.00013930      -0.00044173
Ti      -0.00053076       1.74937230      11.29149752        0      -0.00003345       0.00000287      -0.00028974
Ti       1.51479737       0.87449771       8.71261193        0       0.00000110       0.00000013       0.00006109
O        0.00073666       1.74910050       7.77169138        1      -0.00058992       0.00052620       0.00021643
O        1.51399760       0.87786724      12.23008024        3      -0.00000566      -0.00018454       0.08668270
C       -1.51515836       2.62374507      10.00102139        2      -0.00024360       0.00007658       0.00032197
Ti      -1.51528435       4.37273619      11.29188404        0      -0.00014854       0.00056054       0.00004911
Ti      -0.00009065       3.49885505       8.71084669        0      -0.00043735       0.00016179       0.00004268
O       -1.51518245       4.37512822       7.77278516        1       0.00001802      -0.00076037      -0.00000677
O        0.00057047       3.49862278      12.23008024        3      -0.00026939       0.00025650       0.07104961
C       -3.03015707       5.24758181      10.00408444        2      -0.00003172       0.00046381      -0.00092043
Ti      -3.02946605       6.99889161      11.30720072        0      -0.00012126       0.00084606       0.00007634
Ti      -1.51529219       6.12267568       8.71526295        0      -0.00014215       0.00036497      -0.00094408
O       -3.02940505       6.99892466       7.77735091        1      -0.00034914      -0.00052046      -0.00227598
O       -1.51340439       6.11899803      12.23008024        3      -0.00020848       0.00026088       0.08304409
C       -4.54523019       7.87229849      10.00640567        2       0.00013941       0.00026704      -0.00196712
Ti      -4.54456714       9.62167891      11.29967542        0       0.00054301      -0.00039613       0.00016945
Ti      -3.03009170       8.74693867       8.71854189        0      -0.00012735       0.00017198      -0.00369075
O       -4.54341435       9.62069772       7.77559465        1      -0.00098715       0.00071710      -0.00164783
O       -3.03233282       8.74763426      12.23008024        3      -0.00024396       0.00006983       0.03939419
C        3.02980114       0.00028815      10.00665480        2      -0.00000400      -0.00032583      -0.00185613
Ti       3.02938385       1.75008615      11.29180392        0      -0.00000485      -0.00034828       0.00038821
Ti       4.54506979       0.87426936       8.71404731        0      -0.00014840       0.00012799      -0.00063732
O        3.03022322       1.74822309       7.77294076        1      -0.00030857       0.00079957       0.00007626
O        4.54548975       0.87934812      12.23008024        3       0.00006673      -0.00002323       0.09996657
C        1.51482982       2.62439735      10.00126360        2      -0.00032569      -0.00022058       0.00013573
Ti       1.51470108       4.37341771      11.29155454        0      -0.00019264       0.00016600      -0.00011932
Ti       3.02996668       3.49864787       8.71041346        0      -0.00016381       0.00009992       0.00045047
O        1.51471369       4.37392544       7.77140344        1      -0.00000113      -0.00010156       0.00046448
O        3.03006167       3.50011887      12.23008024        3      -0.00016285      -0.00016929       0.09001896
C        0.00010703       5.24788643      10.00268951        2      -0.00045126       0.00038261      -0.00044552
Ti      -0.00082695       6.99804881      11.29744653        0      -0.00071729       0.00057126       0.00023243
Ti       1.51450484       6.12315606       8.71180404        0      -0.00010669       0.00012377      -0.00001169
O       -0.00146639       6.99846913       7.77528743        1       0.00055884      -0.00030548      -0.00096094
O        1.51767449       6.12130167      12.23008024        3      -0.00015366       0.00004946       0.09492264
C       -1.51537173       7.87252166      10.01022286        2      -0.00026643       0.00030657      -0.00248051
Ti      -1.51606908       9.62087819      11.30899588        0      -0.00063159      -0.00042487      -0.00023328
Ti      -0.00011137       8.74722789       8.71562618        0      -0.00020144       0.00011728      -0.00139347
O       -1.51585968       9.62046868       7.77764748        1       0.00031077       0.00071282      -0.00251683
O        0.00399977       8.74722398      12.23008024        3      -0.00008527       0.00012079       0.07780149
C        6.06024302       0.00048686      10.00457405        2      -0.00032017      -0.00013588      -0.00108540
Ti       6.06024713       1.74957469      11.29174904        0      -0.00020401      -0.00020182      -0.00006797
Ti       7.57489968       0.87474683       8.71120281        0      -0.00034287      -0.00003026       0.00000294
O        6.05910809       1.74859635       7.77237386        1       0.00039467       0.00070162       0.00012795
O        7.57543933       0.87586784      12.23008024        3      -0.00029607      -0.00003852       0.08994047
C        4.54493220       2.62447379      10.00142403        2       0.00001749      -0.00020528      -0.00001848
Ti       4.54501665       4.37367831      11.29167583        0      -0.00004848       0.00000500      -0.00003506
Ti       6.06001915       3.49875693       8.71061704        0       0.00020172       0.00004495       0.00015916
O        4.54498927       4.37353721       7.77092413        1      -0.00014133       0.00010405       0.00050108
O        6.05938517       3.49943798      12.23008024        3       0.00022211      -0.00005858       0.06933606
C        3.02999052       5.24828040      10.00095876        2      -0.00015747       0.00013610       0.00017408
Ti       3.03008285       6.99793918      11.29156934        0      -0.00028528       0.00008499      -0.00008697
Ti       4.54517679       6.12305212       8.71068211        0      -0.00011342       0.00018056       0.00001857
O        3.02949858       6.99760957       7.77149651        1       0.00010865       0.00018176       0.00038273
O        4.54425125       6.12239172      12.23008024        3      -0.00013136       0.00015276       0.08473866
C        1.51524148       7.87226996      10.00283491        2      -0.00042560       0.00030205      -0.00047959
Ti       1.51538962       9.62220119      11.29205848        0      -0.00041834      -0.00001761       0.00006936
Ti       3.02983274       8.74698228       8.71084877        0      -0.00019522       0.00042389       0.00030433
O        1.51341027       9.62091737       7.77300831        1       0.00077456       0.00053247      -0.00013193
O        3.03066055       8.74659888      12.23008024        3      -0.00015024       0.00025055       0.07700436
C        9.09019920       0.00035805      10.00107155        2      -0.00010334       0.00037574       0.00026807
Ti       9.08988008       1.74949224      11.29120619        0      -0.00001412       0.00013829      -0.00007474
Ti      10.60496361       0.87472417       8.71066553        0      -0.00001216       0.00010350      -0.00095343
O        9.08960745       1.74952239       7.77115812        1       0.00001074       0.00014779       0.00037679
O       10.60407702       0.87513038      12.23008024        3      -0.00001194       0.00013890       0.08047021
C        7.57492238       2.62419824      10.00107018        2       0.00021392      -0.00001045       0.00030563
Ti       7.57513257       4.37323838      11.29150555        0       0.00003825       0.00040060      -0.00001155
Ti       9.08993537       3.49882138       8.71098841        0      -0.00004697       0.00044755       0.00006797
O        7.57522455       4.37458573       7.77218061        1      -0.00028552      -0.00052463       0.00022776
O        9.08932307       3.49786798      12.23008024        3      -0.00011143       0.00053560       0.08169176
C        6.05984381       5.24815808      10.00148672        2       0.00013909       0.00017760      -0.00007529
Ti       6.06000241       6.99799335      11.29269122        0       0.00002238       0.00023343       0.00002442
Ti       7.57543986       6.12297165       8.71380691        0      -0.00006218       0.00025122      -0.00045820
O        6.06111727       6.99796494       7.77297935        1      -0.00071757      -0.00001463      -0.00013967
O        7.57214893       6.12055447      12.23008024        3      -0.00008354       0.00027273       0.09877585
C        4.54481552       7.87226380      10.00138452        2      -0.00001557       0.00044063      -0.00002794
Ti       4.54475366       9.62203956      11.29134444        0       0.00007666       0.00025640      -0.00018563
Ti       6.06010252       8.74715298       8.71275673        0       0.00007152       0.00019041      -0.00017458
O        4.54558894       9.62105701       7.77172542        1      -0.00065900       0.00046700       0.00020891
O        6.05685486       8.74631730      12.23008024        3      -0.00009331       0.00000175       0.09085270
C        0.04147201       0.06970231      17.67349477       10       0.00564332       0.00027445       0.00385707
C        1.25206486       0.76912107      17.65820272       10       0.00037276      -0.00203188       0.03606904
C       -1.16848125       2.16790123      17.67881547       10      -0.00055241       0.00060080      -0.01786986
C        0.04342175       2.86750304      17.66110504       10      -0.00037167       0.00071831       0.00943740
C       -2.38035523       4.26498378      17.67349477       10      -0.00335213       0.00043361       0.00600543
C       -1.16933824       4.96345879      17.65820272       10      -0.00077993       0.00056265       0.02758953
C       -3.58752472       6.36747566      17.61038402       10      -0.00252957       0.00043104      -0.02559280
C       -2.38049693       7.04859782      17.56856180       10       0.00058471      -0.00061600      -0.44393318
C       -4.80098712       8.46933307      17.61038402       10       0.00344783      -0.00089430      -0.02388861
C       -3.60732854       9.17394483      17.56856180       10      -0.00001926      -0.00218006      -0.46172310
C        2.46596562       0.06372578      17.61038402       10       0.00287437      -0.00249707      -0.02763361
C        3.67933339       0.76653899      17.57830534       10       0.00356099       0.00157790       0.16952313
C        1.25496412       2.16723975      17.64715975       10       0.00124724      -0.00134079      -0.02816332
C        2.46708654       2.86633791      17.62524534       10       0.00031895       0.00062512      -0.04063191
C        0.04284446       4.26692707      17.64715975       10       0.00063096      -0.00135943      -0.01905261
C        1.25453460       4.96686829      17.62524534       10      -0.00186902       0.00026177      -0.04400365
C       -1.17334695       6.36734857      17.61038402       10       0.00089118       0.00101889      -0.01420463
C        0.04206344       7.06686624      17.57830534       10      -0.00028874      -0.00135199       0.17154417
C       -2.38035099       8.46511661      17.11575614       10       0.00171441      -0.00227961       0.24550062
C       -1.15374263       9.17382896      17.56856180       10       0.00081722       0.00137991      -0.45221412
C        4.89278953       0.06358774      17.61038402       10      -0.00003602      -0.00309818      -0.02331596
C        6.10672662       0.76886930      17.65820272       10       0.00087213       0.00116080       0.03377820
C        3.67955196       2.16377627      17.61063905       10      -0.00144597       0.00155528      -0.08181098
C        4.89207762       2.86627146      17.62524534       10      -0.00039754       0.00023690      -0.04445882
C        2.46692495       4.26656871      17.62256373       10      -0.00163788      -0.00002495      -0.00144874
C        3.67970980       4.96672910      17.61756296       10      -0.00068430       0.00103847      -0.03868531
C        1.25217868       6.36823315      17.61063905       10       0.00066681      -0.00042318      -0.07755761
C        2.46691809       7.06692447      17.62524534       10       0.00093002       0.00094109      -0.04382854
C        0.03995161       8.46921863      17.61038402       10       0.00015090      -0.00189409      -0.01484490
C        1.25783734       9.16766800      17.65820272       10       0.00042197       0.00344763       0.02330677
C        7.31727552       0.06948018      17.67349477       10      -0.00080435      -0.00163828       0.00909282
C        8.52862269       0.76888037      17.68043329       10       0.00030292       0.00081373      -0.01287189
C        6.10413761       2.16691032      17.64715975       10      -0.00056647       0.00258169      -0.03097169
C        7.31573980       2.86732644      17.66110504       10      -0.00119457      -0.00096170      -0.00826573
C        4.89247518       4.26650414      17.62256373       10      -0.00068310       0.00098131      -0.00625990
C        6.10492778       4.96695592      17.62524534       10      -0.00171440       0.00084541      -0.04142926
C        3.67962803       6.36716181      17.62256373       10      -0.00137208      -0.00072737      -0.00580994
C        4.89236884       7.06706316      17.62524534       10      -0.00038227       0.00112383      -0.03931494
C        2.46728039       8.46627297      17.64715975       10      -0.00182220      -0.00164939      -0.01340936
C        3.67952164       9.16539257      17.66110504       10       0.00091445       0.00211972       0.00454244
C        9.73937703       0.06847254      17.67881547       10       0.00214050      -0.00057003      -0.02058683
C       10.95022001       0.76905152      17.68043329       10      -0.00028308      -0.00197988      -0.00223647
C        8.52754341       2.16771472      17.67881547       10      -0.00192261       0.00163401      -0.01164410
C        9.73949207       2.86624033      17.68043329       10       0.00291569      -0.00144640      -0.01129805
C        7.31652875       4.26679591      17.64715975       10      -0.00181237      -0.00009584      -0.02671525
C        8.52858284       4.96356623      17.65820272       10       0.00266023      -0.00086573       0.03064311
C        6.10705848       6.36837951      17.61063905       10      -0.00118424      -0.00271938      -0.08696960
C        7.31707808       7.06708399      17.57830534       10       0.00052039      -0.00221778       0.16656196
C        4.89177607       8.46636410      17.64715975       10       0.00182587      -0.00099039      -0.02376743
C        6.10119531       9.16790400      17.65820272       10      -0.00135705      -0.00258186       0.03688540
O       -2.37942775       8.46135887      15.76367961       11       0.00206825       0.00094600      -0.00267326
