131
Lattice="12.12 0.0 0.0 -6.06 10.496227893867395 0.0 0.0 0.0 40.0" Properties=species:S:1:pos:R:3:tags:I:1:forces:R:3 energy=-1206.1024851577465 stress="0.00293012459173794 4.682428433460014e-07 1.4372674015710258e-06 4.682428433460014e-07 0.002931511110160382 4.742110285601203e-06 1.4372674015710258e-06 4.742110285601203e-06 0.002579955122257054" pbc="T T F"
C       -0.35564116       0.15211656      10.00105509        2       0.00450715      -0.00210723      -0.00155332
Ti      -0.35454660       1.89959675      11.30166259        0      -0.00002260       0.00352410       0.00137892
Ti       1.16196050       1.02537077       8.71863467        0       0.00012961      -0.00052709      -0.00197696
O       -0.34912659       1.90141727       7.77732559        1      -0.00408751      -0.00235078       0.00144216
O        1.15678146       1.03091276      12.23008024        3       0.00087841       0.00017712       0.01773725
C       -1.86717046       2.77242656      10.00063945        2      -0.00030554       0.00032502      -0.00125431
Ti      -1.86722905       4.52140899      11.30604881        0       0.00102452      -0.00197767       0.00029225
Ti      -0.35213616       3.64908446       8.71709038        0      -0.00116706       0.00010672       0.00163659
O       -1.86720541       4.53096466       7.78451277        1       0.00055858      -0.00368565      -0.00018537
O       -0.35117975       3.64459851      12.23008024        3      -0.00009570       0.00017202       0.00925430
C       -3.38300435       5.39923499      10.01292634        2       0.00098673       0.00070229       0.00017017
Ti      -3.38076356       7.15064646      11.33202794        0      -0.00262750      -0.00221514      -0.00029846
Ti      -1.86766375       6.27272114       8.73332815        0       0.00147935      -0.00003822      -0.00198173
O       -3.37865231       7.15070332       7.79206929        1       0.00192877       0.00033206       0.00055311
O       -1.86764682       6.25063345      12.23008024        3      -0.00080652       0.00190568      -0.12214429
C       -4.89841573       8.02162626      10.01277838        2       0.00379157      -0.00001556       0.00049407
Ti      -4.90067385       9.77382323      11.30781363        0      -0.00686590       0.00486479      -0.00519152
Ti      -3.38399372       8.89793334       8.73322107        0       0.00478664      -0.00162080      -0.00097127
O       -4.89214146       9.76902549       7.78522082        1       0.00047397       0.00085131      -0.00079614
O       -3.41074108       8.90935357      12.23008024        3       0.00548035      -0.00228849      -0.24388750
C        2.67872988       0.15044532      10.01509467        2       0.00256074      -0.00173052       0.00083495
Ti       2.67555806       1.89982712      11.30529011        0      -0.00042634       0.00177824       0.00075795
Ti       4.19279172       1.02333132       8.72457271        0      -0.00159723       0.00077396      -0.00088844
O        2.67964224       1.89713146       7.78216520        1       0.00068205       0.00045803       0.00164922
O        4.19252791       1.03547990      12.23008024        3      -0.00127699      -0.00187103       0.04653313
C        1.16257434       2.77464150      10.00393098        2       0.00039849      -0.00093222      -0.00251091
Ti       1.16183229       4.52195476      11.30470880        0       0.00068476       0.00048412       0.00261155
Ti       2.67789233       3.64874015       8.71691711        0      -0.00182822       0.00055668       0.00002291
O        1.16248135       4.52632659       7.78123815        1      -0.00151417       0.00004082       0.00225531
O        2.67760297       3.64935612      12.23008024        3       0.00268365       0.00061777       0.00363663
C       -0.35145556       5.39940114      10.01314150        2      -0.00300034       0.00185144      -0.00170253
Ti      -0.35334281       7.15073548      11.33256703        0       0.00228427      -0.00055067      -0.00037672
Ti       1.16089926       6.27401227       8.72355885        0       0.00238146      -0.00093969      -0.00197552
O       -0.35687329       7.15082917       7.79205872        1       0.00235136      -0.00084609       0.00054656
O        1.17059006       6.26797715      12.23008024        3      -0.00095544       0.00172719       0.04822447
C       -1.86742114       8.02379305      10.03622324        2       0.00024057       0.00081466       0.00164823
Ti      -1.86690879       9.76968986      11.33403552        0       0.00077888       0.00469234      -0.00013170
Ti      -0.35212093       8.89770431       8.73332806        0       0.00116931      -0.00045310      -0.00157994
O       -1.86781715       9.76732152       7.79227891        1       0.00170599       0.00017873       0.00027367
O       -0.32287866       8.91008361      12.23008024        3      -0.00068155       0.00109793      -0.28197852
C        5.70625416       0.15027426      10.01514733        2       0.00043665      -0.00014741      -0.00041634
Ti       5.70946468       1.89989892      11.30572658        0       0.00207758       0.00115793       0.00052944
Ti       7.22366633       1.02474082       8.71841487        0      -0.00062849       0.00160467       0.00131339
O        5.70636568       1.89669390       7.78234565        1      -0.00359067       0.00225382       0.00007853
O        7.22819556       1.03121946      12.23008024        3       0.00084818      -0.00128089       0.01575407
C        4.19284152       2.77439263      10.00613582        2      -0.00103923      -0.00160438      -0.00166574
Ti       4.19241553       4.52320766      11.30403987        0       0.00183019      -0.00076430       0.00528944
Ti       5.70855259       3.64820995       8.71737897        0      -0.00351793       0.00302491      -0.00098169
O        4.19328360       4.52283699       7.77871136        1      -0.00221527       0.00206338       0.00508945
O        5.70751575       3.64939520      12.23008024        3      -0.00076395       0.00138586       0.00364044
C        2.67793088       5.39800425      10.00568889        2      -0.00029639       0.00029490      -0.00308046
Ti       2.67936999       7.14858674      11.30408319        0       0.00080198      -0.00000904       0.00315998
Ti       4.19265890       6.27240310       8.71620244        0      -0.00009281       0.00210666       0.00056105
O        2.67530548       7.14694837       7.78114493        1      -0.00022325       0.00069343       0.00230267
O        4.19253902       6.27157433      12.23008024        3       0.00141625      -0.00165089      -0.00176654
C        1.16338405       8.02138987      10.01297490        2      -0.00211966       0.00243695      -0.00187351
Ti       1.16650128       9.77392553      11.30740682        0       0.00313844       0.00162943      -0.00046623
Ti       2.67773637       8.89704226       8.71762465        0       0.00034403       0.00020361       0.00181247
O        1.15653066       9.76867261       7.78513951        1       0.00399842       0.00118226      -0.00096169
O        2.68461528       8.89777534      12.23008024        3       0.00022832       0.00093297       0.01758073
C        8.74068540       0.15177095      10.00101526        2      -0.00000515       0.00099098      -0.00207422
Ti       8.73967759       1.89970058      11.30172458        0       0.00054446       0.00094731       0.00195111
Ti      10.25284663       1.02493883       8.71231329        0       0.00057513      -0.00066002       0.00568499
O        8.73518621       1.90075592       7.77745715        1      -0.00116083       0.00140732       0.00017998
O       10.25271420       1.02492126      12.23008024        3      -0.00031448       0.00105913      -0.01856113
C        7.22311684       2.77426064      10.00424311        2      -0.00163161       0.00142665      -0.00435982
Ti       7.22347679       4.52201450      11.30488054        0       0.00009795      -0.00093070       0.00110264
Ti       8.73843454       3.64874819       8.71738605        0      -0.00185741       0.00018774       0.00112494
O        7.22378045       4.52567319       7.78147110        1      -0.00315160       0.00272448       0.00058518
O        8.73666791       3.64425728      12.23008024        3       0.00220124       0.00135372       0.01161812
C        5.70752854       5.39774558      10.00570675        2       0.00155495       0.00234509      -0.00103557
Ti       5.70614049       7.14836432      11.30411161        0      -0.00151006       0.00057401       0.00098655
Ti       7.22404002       6.27351565       8.72333493        0      -0.00056940       0.00240175      -0.00111035
O        5.70983974       7.14702593       7.78123993        1       0.00074751      -0.00036533       0.00189716
O        7.21494747       6.26791910      12.23008024        3       0.00164739       0.00292639       0.04738017
C        4.19254717       8.02190345      10.00398378        2       0.00137644       0.00070608      -0.00198793
Ti       4.19297273       9.77393664      11.30245299        0      -0.00245205      -0.00017708       0.00111331
Ti       5.70696880       8.89712505       8.71805432        0       0.00188869       0.00009226      -0.00101066
O        4.19236509       9.76848417       7.77723099        1       0.00091556       0.00456994       0.00149126
O        5.70139856       8.89782604      12.23008024        3       0.00050007      -0.00023468       0.01985496
C        0.59464537      -0.16557655      16.25244214       10      -0.00376507      -0.00240452       0.03053477
C        1.80536502       0.53366969      16.23715009       10       0.00245221      -0.00375645       0.03865777
C       -0.61553059       1.93271364      16.25776284       10       0.00103561      -0.00244018       0.00592429
C        0.59669937       2.63242347      16.24005241       10       0.00080407       0.00042710       0.00804711
C       -1.82753387       4.02998313      16.25244214       10      -0.00171552      -0.00464663       0.02737909
C       -0.61623275       4.72851053      16.23715009       10      -0.00371705      -0.00086522       0.03207851
C       -3.03500169       6.13239675      16.18933139       10       0.00341537      -0.00269604       0.01129520
C       -1.82771387       6.81292535      16.14750917       10      -0.00043427       0.00206923      -0.38167495
C       -4.24760972       8.23404281      16.18933139       10       0.00155860      -0.00254167       0.00875531
C       -3.05378820       8.93804491      16.14750917       10       0.00387661      -0.00400827      -0.43646406
C        3.01932389      -0.17223305      16.18933139       10       0.00052284      -0.00247375       0.00239157
C        4.23213390       0.53221384      16.15725271       10      -0.00040021      -0.00308431       0.20108654
C        1.80832502       1.93194731      16.22610712       10       0.00127535      -0.00426954       0.00420727
C        3.02019192       2.63149166      16.20419271       10      -0.00007833      -0.00164110      -0.00194839
C        0.59609099       4.03205802      16.22610712       10       0.00084098       0.00166987       0.00046198
C        1.80765202       4.73225068      16.20419271       10      -0.00131058      -0.00083150       0.00203863
C       -0.62035939       6.13236182      16.18933139       10      -0.00357982       0.00071595       0.01135878
C        0.59548378       6.83137773      16.15725271       10      -0.00452115       0.00051863       0.20273377
C       -1.82871597       8.22797947      15.69470351       10      -0.00111741       0.00076057       0.82019876
C       -0.60287698       8.93742797      16.14750917       10      -0.00224775      -0.00485493      -0.46156775
C        5.44461950      -0.17281463      16.18933139       10       0.00037039       0.00005464       0.00089806
C        6.65865931       0.53323459      16.23715009       10      -0.00059947      -0.00499975       0.03925497
C        4.23230674       1.92931918      16.18958642       10       0.00103935      -0.00185810      -0.06178757
C        5.44455148       2.63138048      16.20419271       10      -0.00194460      -0.00105749      -0.00115829
C        3.01985685       4.03167731      16.20151110       10       0.00109592       0.00012644       0.01465843
C        4.23254958       4.73173389      16.19651033       10      -0.00105409      -0.00066259       0.01626531
C        1.80556010       6.13312264      16.18958642       10      -0.00167698      -0.00042258      -0.06346576
C        3.01987436       6.83172504      16.20419271       10      -0.00498700      -0.00131000       0.00650018
C        0.59130036       8.23371164      16.18933139       10      -0.00048676       0.00189758       0.00821017
C        1.80965091       8.93212707      16.23715009       10      -0.00214272      -0.00129120       0.04591823
C        7.86938411      -0.16599823      16.25244214       10       0.00445917       0.00425015       0.03080863
C        9.08098493       0.53351086      16.25938066       10       0.00267492      -0.00119170      -0.01111690
C        6.65618596       1.93157842      16.22610712       10       0.00009189      -0.00181757       0.00449371
C        7.86792880       2.63211848      16.24005241       10      -0.00268364       0.00121879       0.01383898
C        5.44517208       4.03158591      16.20151110       10      -0.00142432       0.00000177       0.01442352
C        6.65744169       4.73210063      16.20419271       10      -0.00366665       0.00164265       0.00512027
C        4.23255314       6.13195526      16.20151110       10      -0.00283076       0.00085581       0.01207433
C        5.44511569       6.83173199      16.20419271       10       0.00011102      -0.00117236       0.00685198
C        3.01949287       8.23092167      16.22610712       10      -0.00000092      -0.00074419      -0.00201548
C        4.23201152       8.93001182      16.24005241       10       0.00098313      -0.00581988       0.03132633
C       10.29203188      -0.16672185      16.25776284       10      -0.00047394      -0.00280723       0.00163544
C       11.50305485       0.53367650      16.25938066       10       0.00144999       0.00207039      -0.01464650
C        9.08011468       1.93251280      16.25776284       10      -0.00203428      -0.00058309       0.00567436
C       10.29230923       2.63116489      16.25938066       10      -0.00238703       0.00045192      -0.02551308
C        7.86886728       4.03179875      16.22610712       10      -0.00293414       0.00172686      -0.00192879
C        9.08115361       4.72846539      16.23715009       10      -0.00136073      -0.00046939       0.03516209
C        6.65944872       6.13304858      16.18958642       10      -0.00046801       0.00185705      -0.06538745
C        7.86926338       6.83163164      16.15725271       10       0.00154432      -0.00185561       0.20283452
C        5.44463725       8.23098920      16.22610712       10       0.00003394      -0.00075222      -0.00363086
C        6.65418923       8.93247987      16.23715009       10       0.00554316      -0.00143294       0.04896325
O       -1.83639505       8.20387128      14.35523551       11       0.00414662       0.00770464      -0.00105473
