131
Lattice="12.12 0.0 0.0 -6.06 10.496227893867395 0.0 0.0 0.0 40.0" Properties=species:S:1:pos:R:3:tags:I:1:forces:R:3 energy=-1205.970619477854 stress="0.002918951901651588 -2.5512598692732837e-07 1.7597725300221653e-06 -2.5512598692732837e-07 0.0029214754139930584 6.3759931412110595e-06 1.7597725300221653e-06 6.3759931412110595e-06 0.002631136006876591" pbc="T T F"
C       -0.36120580       0.15525140       9.99967860        2       0.00559421      -0.00226075      -0.00279641
Ti      -0.35933288       1.90269017      11.30388189        0      -0.00032982       0.00396024       0.00275452
Ti       1.15664642       1.02800929       8.71798963        0       0.00023884      -0.00097545      -0.00045609
O       -0.35357789       1.90424704       7.77691824        1      -0.00574726      -0.00223082       0.00272410
O        1.15168747       1.03433451      12.23008024        3       0.00136383       0.00100917      -0.04535562
C       -1.87240392       2.77491377       9.99972434        2       0.00089382      -0.00075071      -0.00190380
Ti      -1.87269201       4.52343916      11.30568251        0       0.00252482      -0.00202918       0.00298770
Ti      -0.35717998       3.65135064       8.71693980        0      -0.00199026       0.00107419       0.00188945
O       -1.87240564       4.53408529       7.78421773        1       0.00206700      -0.00411297       0.00152037
O       -0.35593972       3.64693997      12.23008024        3       0.00073264       0.00117052      -0.05414347
C       -3.38840751       5.40252931      10.01237828        2       0.00128113       0.00003355       0.00007962
Ti      -3.38598647       7.15310644      11.33140975        0      -0.00353591      -0.00312578       0.00152001
Ti      -1.87250364       6.27482468       8.73260914        0       0.00026812       0.00091871      -0.00047956
O       -3.38301954       7.15354800       7.79206058        1       0.00162431       0.00185190       0.00187106
O       -1.87318499       6.24585112      12.23008024        3      -0.00005604       0.00051288      -0.23477561
C       -4.90338484       8.02411376      10.01224833        2       0.00527277      -0.00226627       0.00024800
Ti      -4.90697665       9.77730421      11.30650891        0      -0.00611606       0.00435910      -0.00209080
Ti      -3.38886270       8.90069040       8.73400669        0       0.00435760      -0.00155642       0.00105864
O       -4.89625753       9.77124007       7.78499437        1      -0.00195541       0.00232833       0.00077120
O       -3.42446816       8.91515538      12.23008024        3       0.00020636       0.00092426      -0.37013370
C        2.67431697       0.15256088      10.01554613        2       0.00509731      -0.00178371       0.00020398
Ti       2.67032728       1.90256141      11.30583657        0      -0.00018197       0.00181980       0.00145323
Ti       4.18775508       1.02529822       8.72497902        0      -0.00172110       0.00248839      -0.00073095
O        2.67475866       1.89940954       7.78229362        1       0.00159657       0.00078822       0.00241513
O        4.18741876       1.03859257      12.23008024        3      -0.00172493      -0.00164947       0.01707359
C        1.15745141       2.77724239      10.00352612        2       0.00035754      -0.00036642      -0.00330345
Ti       1.15655500       4.52467216      11.30530259        0       0.00218607       0.00046108       0.00365730
Ti       2.67277148       3.65108516       8.71694484        0      -0.00154779       0.00096725      -0.00021784
O        1.15737045       4.52880305       7.78127784        1      -0.00164720       0.00289128       0.00279279
O        2.67174107       3.65163959      12.23008024        3       0.00472493       0.00132617      -0.04462781
C       -0.35639005       5.40278723      10.01293424        2      -0.00372474       0.00198293      -0.00149199
Ti      -0.35785005       7.15345302      11.33277924        0       0.00079232      -0.00067923       0.00122506
Ti       1.15580552       6.27655781       8.72341983        0       0.00288228      -0.00086713      -0.00085253
O       -0.36245647       7.15388885       7.79212038        1       0.00322275      -0.00121700       0.00234969
O        1.16577234       6.27031313      12.23008024        3      -0.00149591       0.00217145       0.00822688
C       -1.87204931       8.02682173      10.03980737        2       0.00008492       0.00022739       0.00166233
Ti      -1.87168829       9.77220922      11.33741029        0       0.00181751       0.00567117       0.00117368
Ti      -0.35675426       8.90041392       8.73477604        0      -0.00077132       0.00009306      -0.00017982
O       -1.87252710       9.76924658       7.79287313        1       0.00046367       0.00044152       0.00169192
O       -0.31688594       8.91799824      12.23008024        3      -0.00139491      -0.00072956      -0.43271814
C        5.70071546       0.15277824      10.01555522        2       0.00079430      -0.00038274      -0.00003419
Ti       5.70449443       1.90305212      11.30567419        0       0.00162148       0.00043774       0.00180204
Ti       7.21871385       1.02752499       8.71793907        0       0.00061796       0.00201355      -0.00010935
O        5.70106001       1.89918462       7.78240061        1      -0.00419394       0.00197116       0.00106492
O        7.22379841       1.03580615      12.23008024        3       0.00113767      -0.00229688      -0.03909564
C        4.18760790       2.77686924      10.00609887        2      -0.00095766      -0.00057529      -0.00228425
Ti       4.18666091       4.52611829      11.30577609        0       0.00359692      -0.00122881       0.00713142
Ti       5.70308700       3.65077555       8.71728764        0      -0.00186671       0.00317523      -0.00147224
O        4.18786313       4.52532869       7.77904386        1      -0.00099236       0.00246277       0.00469617
O        5.70215158       3.65219652      12.23008024        3       0.00005698       0.00009053      -0.04685188
C        2.67260017       5.40074614      10.00572159        2       0.00153150      -0.00034768      -0.00326567
Ti       2.67403922       7.15210994      11.30564426        0       0.00176032       0.00069944       0.00422385
Ti       4.18751164       6.27480543       8.71659279        0       0.00067101       0.00321600      -0.00026388
O        2.67019133       7.14945468       7.78108293        1      -0.00148651       0.00048584       0.00300947
O        4.18752521       6.27459335      12.23008024        3       0.00093086      -0.00254276      -0.04603199
C        1.15839044       8.02367423      10.01286257        2      -0.00319721       0.00335931      -0.00161818
Ti       1.16365431       9.77829489      11.30641280        0       0.00347827       0.00148160       0.00091343
Ti       2.67301883       8.89955566       8.71683288        0      -0.00062271       0.00101723       0.00210173
O        1.15098859       9.77115604       7.78512299        1       0.00490284       0.00094237       0.00106065
O        2.68175056       8.90076895      12.23008024        3      -0.00113608       0.00159989      -0.04377530
C        8.73642173       0.15516224       9.99955434        2       0.00082916       0.00124408      -0.00230218
Ti       8.73467833       1.90335440      11.30388389        0       0.00029799       0.00082538       0.00242739
Ti      10.24765494       1.02759162       8.71203017        0       0.00144140      -0.00021306       0.00448277
O        8.72985324       1.90348103       7.77698500        1      -0.00287140       0.00325295       0.00236223
O       10.24779376       1.02799610      12.23008024        3      -0.00146635       0.00210384      -0.07695208
C        7.21777834       2.77723826      10.00379089        2      -0.00139476       0.00126110      -0.00569699
Ti       7.21732528       4.52508112      11.30576682        0       0.00220468      -0.00033092       0.00277702
Ti       8.73295425       3.65130800       8.71714611        0      -0.00098633      -0.00019997       0.00133726
O        7.21842536       4.52834578       7.78131774        1      -0.00308259       0.00379281       0.00219481
O        8.73043261       3.64729050      12.23008024        3       0.00378133       0.00064120      -0.05157148
C        5.70216559       5.40055047      10.00568688        2       0.00142464       0.00237890      -0.00136611
Ti       5.70084128       7.15184872      11.30564064        0      -0.00091865       0.00049117       0.00340285
Ti       7.21911796       6.27623771       8.72308138        0      -0.00167300       0.00202118      -0.00016557
O        5.70467030       7.14938837       7.78104063        1       0.00183508      -0.00005733       0.00315128
O        7.20968671       6.27065525      12.23008024        3       0.00180153       0.00277810       0.00154462
C        4.18754732       8.02451129      10.00341475        2       0.00138357       0.00170715      -0.00264859
Ti       4.18829092       9.77726426      11.30279345        0      -0.00288200       0.00049787       0.00233424
Ti       5.70184097       8.89951250       8.71704644        0       0.00259317       0.00110469       0.00063795
O        4.18745617       9.77069752       7.77646119        1       0.00003545       0.00612421       0.00333361
O        5.69508079       8.90083157      12.23008024        3      -0.00021575      -0.00070161      -0.04037514
C        0.60246880      -0.16984330      16.11033687       10      -0.00147008      -0.00123764       0.05072866
C        1.81325444       0.52953374      16.09504482       10       0.00173608      -0.00357336       0.04422357
C       -0.60765642       1.92826642      16.11565757       10       0.00133461      -0.00112081       0.03147637
C        0.60452976       2.62807982      16.09794714       10       0.00141784       0.00029568       0.01987345
C       -1.81962287       4.02566293      16.11033687       10      -0.00301225      -0.00454337       0.05237709
C       -0.60833140       4.72412902      16.09504482       10      -0.00185571      -0.00274360       0.04584006
C       -3.02695291       6.12824515      16.04722612       10       0.00326196      -0.00413779       0.02503913
C       -1.81981267       6.80812230      16.00540390       10       0.00168739      -0.00093990      -0.34010412
C       -4.23946768       8.22987335      16.04722612       10       0.00210816      -0.00183874       0.02210922
C       -3.04636626       8.93430380      16.00540390       10       0.00227545      -0.00286385      -0.38879728
C        3.02719697      -0.17651635      16.04722612       10       0.00058898      -0.00132003       0.01779080
C        4.23995845       0.52793939      16.01514744       10       0.00146795      -0.00299791       0.22159087
C        1.81621337       1.92777826      16.08400185       10       0.00191089      -0.00424281       0.01672914
C        3.02825209       2.62728107      16.06208744       10       0.00010848      -0.00249718       0.01156557
C        0.60397244       4.02766757      16.08400185       10       0.00186864       0.00043817       0.02256019
C        1.81563367       4.72771867      16.06208744       10      -0.00212183      -0.00143604       0.01942227
C       -0.61262024       6.12809689      16.04722612       10      -0.00199053      -0.00053115       0.02555231
C        0.60338137       6.82693839      16.01514744       10      -0.00475391       0.00079090       0.21582432
C       -1.82082537       8.22375780      15.55259824       10      -0.00053229      -0.00028943       0.99074972
C       -0.59448887       8.93353680      16.00540390       10      -0.00050420      -0.00237502      -0.41669842
C        5.45232032      -0.17717781      16.04722612       10       0.00173884       0.00028087       0.01515001
C        6.66640337       0.52900086      16.09504482       10       0.00142280      -0.00381194       0.04665034
C        4.24033307       1.92495209      16.04748115       10      -0.00005920      -0.00294122      -0.05211062
C        5.45260765       2.62712741      16.06208744       10      -0.00335291      -0.00171481       0.01638006
C        3.02798919       4.02741593      16.05940583       10       0.00039296      -0.00080797       0.03131592
C        4.24068437       4.72740071      16.05440506       10      -0.00267340       0.00094967       0.04020183
C        1.81344937       6.12868216      16.04748115       10      -0.00324559      -0.00076491      -0.05422622
C        3.02772207       6.82732359      16.06208744       10      -0.00671344      -0.00046458       0.03193097
C        0.59895844       8.22935646      16.04722612       10      -0.00006194       0.00212268       0.02170511
C        1.81758446       8.92766733      16.09504482       10      -0.00144232       0.00036628       0.05498161
C        7.87710335      -0.17035920      16.11033687       10       0.00543710       0.00325736       0.05337451
C        9.08861288       0.52904108      16.11727539       10       0.00351771      -0.00197929       0.00667016
C        6.66424192       1.92727864      16.08400185       10      -0.00079846      -0.00078950       0.01273111
C        7.87596685       2.62779486      16.09794714       10      -0.00430859      -0.00054164       0.02764847
C        5.45326681       4.02728796      16.05940583       10      -0.00345583       0.00043037       0.03102671
C        6.66562468       4.72763352      16.06208744       10      -0.00567758       0.00117031       0.02268934
C        4.24064163       6.12757543      16.05940583       10      -0.00444241       0.00266702       0.02345787
C        5.45328979       6.82742642      16.06208744       10      -0.00007510      -0.00054348       0.03251034
C        3.02740584       8.22651863      16.08400185       10      -0.00074036      -0.00090443       0.00897625
C        4.23993378       8.92561819      16.09794714       10       0.00104693      -0.00543176       0.05143966
C       10.29977626      -0.17123368      16.11565757       10       0.00168562      -0.00212264       0.02817274
C       11.51087034       0.52923637      16.11727539       10       0.00194703       0.00176820      -0.00020528
C        9.08797317       1.92803713      16.11565757       10      -0.00315751       0.00020087       0.02606097
C       10.30017706       2.62675455      16.11727539       10      -0.00142886      -0.00095436      -0.01933536
C        7.87697632       4.02743824      16.08400185       10      -0.00467520       0.00153130       0.01957486
C        9.08909212       4.72416859      16.09504482       10      -0.00095467      -0.00288547       0.04912580
C        6.66752379       6.12868975      16.04748115       10       0.00004127       0.00190758      -0.05444862
C        7.87722902       6.82738709      16.01514744       10       0.00282155      -0.00287989       0.21670112
C        5.45260189       8.22662709      16.08400185       10       0.00071101       0.00013711       0.00815008
C        6.66204635       8.92816388      16.09504482       10       0.00419384      -0.00264162       0.05522656
O       -1.82894818       8.19839532      14.21764766       11      -0.00571368      -0.00461816       0.00541919
