131
Lattice="12.12 0.0 0.0 -6.06 10.496227893867395 0.0 0.0 0.0 40.0" Properties=species:S:1:pos:R:3:tags:I:1:forces:R:3 energy=-1205.681911466562 stress="0.002894204109384872 1.750552568773899e-07 2.9178325052616374e-06 1.750552568773899e-07 0.002902455329367733 8.082605771178731e-06 2.9178325052616374e-06 8.082605771178731e-06 0.0026828389818254216" pbc="T T F"
C       -0.35558498       0.10506949       9.99780294        2      -0.00311200       0.00314879       0.00300267
Ti      -0.35290585       1.85322250      11.30510728        0       0.00018227       0.00225570      -0.00124071
Ti       1.16238016       0.97699374       8.71683076        0       0.00193015       0.00331430       0.00146417
O       -0.34764715       1.85297679       7.77677333        1       0.00502278       0.00473975      -0.00144832
O        1.15675129       0.98576589      12.23008024        3      -0.00065039      -0.00076462      -0.10301663
C       -1.86637514       2.72456153       9.99906641        2       0.00133914       0.00126500       0.00297552
Ti      -1.86607706       4.47256245      11.30629548        0       0.00130190       0.00070512      -0.00212494
Ti      -0.35194801       3.60049897       8.71712833        0       0.00350159       0.00212421       0.00209590
O       -1.86641962       4.48381078       7.78462328        1       0.00007994       0.00353340       0.00071166
O       -0.34885021       3.59653913      12.23008024        3      -0.00075026       0.00208364      -0.10289269
C       -3.38233393       5.35207865      10.01274661        2       0.00011657       0.00392565       0.00201679
Ti      -3.38155526       7.10256631      11.33166363        0      -0.00057316      -0.00376465      -0.00598501
Ti      -1.86589172       6.22383548       8.73402805        0      -0.00037005       0.00147085       0.00038341
O       -3.37492733       7.10399461       7.79396283        1      -0.00111225      -0.00132755      -0.00125769
O       -1.86614576       6.19267386      12.23008024        3      -0.00178815       0.00366910      -0.27605301
C       -4.89743047       7.97255808      10.01137798        2      -0.00210660       0.00459056       0.00330433
Ti      -4.90527572       9.72895361      11.30304015        0      -0.00326665       0.00270529      -0.00189193
Ti      -3.38107580       8.84998826       8.73837578        0      -0.00263061       0.00185642      -0.00309078
O       -4.88838175       9.72062665       7.78557319        1       0.00067277       0.00010797      -0.00158954
O       -3.43876323       8.86605927      12.23008024        3       0.00633861      -0.00160671      -0.52972638
C        2.68265048       0.10056851      10.01900755        2      -0.00409836       0.00066200       0.00228616
Ti       2.67625319       1.85146968      11.30391624        0       0.00191120       0.00281295      -0.00022681
Ti       4.19355153       0.97377754       8.72775257        0       0.00081298      -0.00066059      -0.00073931
O        2.68123712       1.84752915       7.78292819        1       0.00066421       0.00224471      -0.00057190
O        4.19421841       0.98746735      12.23008024        3       0.00034178      -0.00077669       0.00928250
C        1.16370204       2.72653373      10.00290204        2       0.00150496       0.00099016       0.00209226
Ti       1.16426141       4.47436730      11.30549844        0      -0.00148876       0.00039201       0.00116367
Ti       2.67794294       3.60017466       8.71650536        0       0.00289769       0.00005885       0.00088417
O        1.16271073       4.47806804       7.78090466        1       0.00315315       0.00085688       0.00114357
O        2.67880156       3.60165085      12.23008024        3      -0.00145611      -0.00090738      -0.09663970
C       -0.35006271       5.35232546      10.01299963        2       0.00126514       0.00245967       0.00128916
Ti      -0.34972895       7.10298608      11.33163574        0       0.00154347      -0.00029518      -0.00257296
Ti       1.16243768       6.22576094       8.72244123        0      -0.00217854       0.00304034       0.00247956
O       -0.35673265       7.10358008       7.79354438        1      -0.00107817       0.00215055      -0.00075799
O        1.17345976       6.21963144      12.23008024        3      -0.00130171       0.00108869      -0.04234550
C       -1.86515856       7.97752440      10.04643182        2      -0.00248444       0.00244916       0.00312093
Ti      -1.86531137       9.71890400      11.35208481        0       0.00228665       0.00268993      -0.00469926
Ti      -0.34985974       8.85007556       8.73783325        0      -0.00147680       0.00097779       0.00096769
O       -1.86578151       9.71766606       7.79590335        1      -0.00007423       0.00176270      -0.00180719
O       -0.28952442       8.86783448      12.23008024        3      -0.00372724       0.00131902      -0.58156931
C        5.70640783       0.10104094      10.01857325        2      -0.00174128       0.00015551       0.00152776
Ti       5.71243452       1.85164074      11.30365694        0      -0.00241161       0.00188770      -0.00035376
Ti       7.22439647       0.97762347       8.71625618        0       0.00329529       0.00126954       0.00266770
O        5.70537083       1.84812852       7.78263586        1       0.00406709       0.00043361      -0.00125076
O        7.23211664       0.98660172      12.23008024        3      -0.00100565       0.00089305      -0.10247590
C        4.19354824       2.72566099      10.00615889        2       0.00139563       0.00019863       0.00123854
Ti       4.19385944       4.47430256      11.30695721        0       0.00045708       0.00082081      -0.00006737
Ti       5.70799161       3.60071894       8.71602550        0       0.00294869      -0.00039916       0.00412829
O        4.19303602       4.47483195       7.77890525        1       0.00211856      -0.00039411      -0.00128268
O        5.70863861       3.60153024      12.23008024        3       0.00176691       0.00073002      -0.09654715
C        2.67909876       5.34981331      10.00506811        2       0.00038023       0.00151983       0.00126898
Ti       2.68172663       7.10148993      11.30526535        0      -0.00050584       0.00215676       0.00033734
Ti       4.19371937       6.22446717       8.71615074        0       0.00179658       0.00012544       0.00182270
O        2.67633415       7.09861936       7.77978999        1       0.00134369       0.00113300       0.00104733
O        4.19391633       6.22297675      12.23008024        3       0.00062637       0.00303854      -0.09175727
C        1.16612999       7.97287463      10.01106999        2      -0.00114704       0.00047582       0.00224845
Ti       1.17503395       9.72992495      11.30285336        0      -0.00110669      -0.00008150      -0.00163296
Ti       2.67946533       8.84883970       8.71497115        0       0.00045143       0.00030647       0.00190738
O        1.15698948       9.72090814       7.78493978        1      -0.00292323       0.00041963      -0.00038537
O        2.69122156       8.84964576      12.23008024        3      -0.00096427       0.00030669      -0.10901618
C        8.74424099       0.10575833       9.99732562        2      -0.00000950      -0.00042854       0.00312199
Ti       8.74175504       1.85368618      11.30430071        0      -0.00149545       0.00124279      -0.00161018
Ti      10.25346506       0.97696666       8.71184573        0      -0.00178371       0.00362113       0.00079370
O        8.73417300       1.85399050       7.77634909        1       0.00415267      -0.00174894       0.00057908
O       10.25393784       0.97843570      12.23008024        3       0.00195030      -0.00061939      -0.13814189
C        7.22337761       2.72703593      10.00256870        2       0.00188363       0.00000564       0.00304781
Ti       7.22361220       4.47421189      11.30538941        0      -0.00189362       0.00059820      -0.00047655
Ti       8.73791203       3.60119816       8.71668691        0       0.00329647      -0.00060101       0.00279559
O        7.22336247       4.47883620       7.78094065        1       0.00388083      -0.00184737      -0.00029857
O        8.73663289       3.59704395      12.23008024        3      -0.00003688       0.00048612      -0.10377783
C        5.70819552       5.35003090      10.00524231        2       0.00081330       0.00026774       0.00131052
Ti       5.70638113       7.10146515      11.30615519        0       0.00018958      -0.00157357      -0.00138686
Ti       7.22540198       6.22645815       8.72307433        0       0.00066269       0.00061600      -0.00076143
O        5.71142599       7.09875689       7.78017292        1      -0.00122929       0.00061725       0.00058909
O        7.21493215       6.21973874      12.23008024        3       0.00116104       0.00141629      -0.03934547
C        4.19407274       7.97373080      10.00198654        2       0.00008050       0.00046366       0.00233286
Ti       4.19444408       9.72674544      11.30264347        0      -0.00087315      -0.00125811      -0.00083823
Ti       5.70878105       8.84889848       8.71526316        0      -0.00147977      -0.00145652       0.00137260
O        4.19421915       9.72107070       7.77553846        1      -0.00060359      -0.00290677      -0.00177314
O        5.69769542       8.84960648      12.23008024        3       0.00228243       0.00204657      -0.10451317
C        0.59304671      -0.09003120      15.96823161       10      -0.00696108      -0.00624962       0.06495431
C        1.80376670       0.60934405      15.95293956       10       0.00282753      -0.00453065       0.05493543
C       -0.61728070       2.00787725      15.97355231       10       0.00108253      -0.00495279       0.05447506
C        0.59498031       2.70742601      15.95584188       10       0.00050776      -0.00166649       0.04317381
C       -1.82968881       4.10496356      15.96823161       10       0.00240627      -0.00536972       0.07832816
C       -0.61813516       4.80326393      15.95293956       10      -0.00380805      -0.00019419       0.05902277
C       -3.03699331       6.20729887      15.90512086       10       0.00340853      -0.00273471       0.04390383
C       -1.82966743       6.88614088      15.86329864       10      -0.00251007       0.00156128      -0.26962901
C       -4.24869843       8.30966221      15.90512086       10      -0.00165125      -0.00485724       0.03553305
C       -3.05614066       9.01454783      15.86329864       10       0.00476642      -0.00318975      -0.36096644
C        3.01786266      -0.09689050      15.90512086       10      -0.00117797      -0.00260876       0.04570461
C        4.23039068       0.60790687      15.87304218       10      -0.00386479      -0.00337147       0.23886655
C        1.80664965       2.00737175      15.94189659       10      -0.00308762      -0.00402204       0.03668427
C        3.01836332       2.70718283      15.91998218       10      -0.00050986      -0.00207968       0.02281995
C        0.59415765       4.10705844      15.94189659       10      -0.00319700       0.00102862       0.03817915
C        1.80538024       4.80766699      15.91998218       10       0.00185334      -0.00040747       0.02817141
C       -0.62244508       6.20736107      15.90512086       10      -0.00387900      -0.00222513       0.04724748
C        0.59311902       6.90701994      15.87304218       10       0.00018884      -0.00110618       0.22755385
C       -1.83058549       8.30244241      15.41049298       10      -0.00395329       0.00011458       1.11448257
C       -0.60430327       9.01399243      15.86329864       10      -0.00145746      -0.00721936      -0.39546651
C        5.44255213      -0.09744146      15.90512086       10      -0.00169680       0.00145661       0.04420629
C        6.65673852       0.60899770      15.95293956       10      -0.00280640      -0.00458573       0.05697380
C        4.23035385       2.00472455      15.90537589       10       0.00012053      -0.00003739      -0.03527558
C        5.44235259       2.70713865      15.91998218       10       0.00013571      -0.00139706       0.02607448
C        3.01777147       4.10730949      15.91730057       10      -0.00107468       0.00044931       0.04892932
C        4.23030646       4.80750234      15.91229980       10       0.00018805      -0.00193334       0.05422305
C        1.80300184       6.20876398      15.90537589       10       0.00052982      -0.00206579      -0.03920065
C        3.01728540       6.90752949      15.91998218       10      -0.00072061      -0.00160114       0.05339594
C        0.58857728       8.30952058      15.90512086       10       0.00158635       0.00026533       0.03659641
C        1.80771192       9.00782867      15.95293956       10      -0.00021220      -0.00421255       0.07035876
C        7.86759304      -0.09024898      15.96823161       10       0.00115590       0.00314677       0.06699132
C        9.07904455       0.60887852      15.97517013       10       0.00132166      -0.00021067       0.02891275
C        6.65395842       2.00710019      15.94189659       10       0.00083336      -0.00381246       0.03393120
C        7.86556013       2.70721425      15.95584188       10       0.00224800       0.00216245       0.04570495
C        5.44288739       4.10731108      15.91730057       10       0.00001197      -0.00107944       0.04730291
C        6.65526978       4.80758008      15.91998218       10       0.00207467      -0.00073514       0.02942115
C        4.23022631       6.20782816      15.91730057       10       0.00051447      -0.00054453       0.04796720
C        5.44318861       6.90743852      15.91998218       10       0.00129963       0.00121507       0.05457948
C        3.01729103       8.30665033      15.94189659       10       0.00117646       0.00031666       0.02044239
C        4.23013461       9.00561655      15.95584188       10       0.00063463      -0.00313627       0.06850755
C       10.29039974      -0.09126419      15.97355231       10      -0.00568948      -0.00388163       0.04166636
C       11.50158231       0.60894190      15.97517013       10       0.00125296       0.00187848       0.02827668
C        9.07785963       2.00778676      15.97355231       10       0.00032694      -0.00470764       0.05312282
C       10.29033998       2.70619749      15.97517013       10      -0.00446483       0.00125256       0.00433771
C        7.86651029       4.10690893      15.94189659       10       0.00204374      -0.00044461       0.03644312
C        9.07878050       4.80314927      15.95293956       10      -0.00169795       0.00347875       0.06344397
C        6.65752771       6.20869450      15.90537589       10      -0.00014032      -0.00089467      -0.03806974
C        7.86743057       6.90699773      15.87304218       10      -0.00192477       0.00315577       0.22958035
C        5.44289756       8.30660039      15.94189659       10      -0.00248474      -0.00224464       0.02278075
C        6.65233357       9.00783877      15.95293956       10       0.00548036       0.00352025       0.07294006
O       -1.84130932       8.25488386      14.07972335       11      -0.00193906      -0.00197778       0.00259939
