130
Lattice="12.12 0.0 0.0 -6.06 10.496227893867395 0.0 0.0 0.0 40.0" Properties=species:S:1:pos:R:3:tags:I:1:forces:R:3 energy=-1200.5096823208896 stress="0.002852436612358071 3.393848897703584e-08 2.817474054977547e-07 3.393848897703584e-08 0.002852421307903832 4.268013360165927e-07 2.817474054977547e-07 4.268013360165927e-07 0.0020277097979601007" pbc="T T F"
C        0.00002531       0.00004449      10.00122947        2       0.00005894       0.00008337       0.00090730
Ti       0.00002452       1.74955062      11.29087469        0       0.00009800       0.00016089       0.00079972
Ti       1.51500552       0.87469588       8.71027536        0      -0.00000365       0.00004060       0.00116875
O        0.00000123       1.74938462       7.77071445        1       0.00001738       0.00006928       0.00139589
O        1.51492547       0.87477930      12.23008024        3       0.00005601       0.00004889       0.10910126
C       -1.51496546       2.62409106      10.00120243        2       0.00002076       0.00007236       0.00089785
Ti      -1.51501731       4.37354542      11.29090350        0       0.00002847       0.00008898       0.00079236
Ti       0.00000373       3.49875784       8.71029824        0       0.00001408       0.00007881       0.00119309
O       -1.51498323       4.37346224       7.77073726        1      -0.00000596       0.00003148       0.00140283
O        0.00021979       3.49901094      12.23008024        3      -0.00004068       0.00006711       0.10485228
C       -3.02998649       5.24814039      10.00121999        2       0.00001191       0.00003355       0.00089524
Ti      -3.02995406       6.99751290      11.29089804        0       0.00003139       0.00004586       0.00079796
Ti      -1.51501464       6.12279791       8.71029687        0       0.00002809       0.00004539       0.00120419
O       -3.02997299       6.99749016       7.77073822        1      -0.00001828       0.00000893       0.00140931
O       -1.51510880       6.12287493      12.23008024        3       0.00003200       0.00006156       0.09929382
C       -4.54498171       7.87222223      10.00120180        2       0.00003806       0.00002469       0.00094437
Ti      -4.54489096       9.62154422      11.29088050        0       0.00012225       0.00009121       0.00079057
Ti      -3.02999284       8.74686141       8.71029524        0       0.00001530       0.00001937       0.00119096
O       -4.54499034       9.62154863       7.77071470        1      -0.00000134       0.00003588       0.00139635
O       -3.02979640       8.74715923      12.23008024        3       0.00010854       0.00002244       0.10316125
C        3.02999775       0.00000501      10.00118447        2       0.00004917       0.00005553       0.00081890
Ti       3.03000855       1.74936590      11.29091314        0       0.00005098       0.00006130       0.00074053
Ti       4.54500248       0.87471199       8.71029360        0       0.00000093       0.00000562       0.00106419
O        3.02997202       1.74936028       7.77069513        1       0.00000091       0.00005599       0.00130870
O        4.54503643       0.87480385      12.23008024        3       0.00004841      -0.00000343       0.07981141
C        1.51499543       2.62409277      10.00118034        2       0.00003241       0.00007579       0.00084586
Ti       1.51509602       4.37360492      11.29086911        0       0.00005619       0.00013273       0.00080330
Ti       3.03002235       3.49873957       8.71030178        0      -0.00001036       0.00004306       0.00109899
O        1.51496909       4.37346599       7.77071527        1       0.00001754       0.00004858       0.00135366
O        3.03011304       3.49862987      12.23008024        3       0.00000376       0.00007320       0.08210673
C        0.00001292       5.24815174      10.00125241        2       0.00002566       0.00008528       0.00084536
Ti       0.00002105       6.99751753      11.29077561        0       0.00004002       0.00009543       0.00077203
Ti       1.51501653       6.12280117       8.71026608        0       0.00002059       0.00006213       0.00115209
O       -0.00000497       6.99748367       7.77072383        1       0.00000895       0.00000467       0.00134326
O        1.51512630       6.12299653      12.23008024        3      -0.00000393       0.00014574       0.10460504
C       -1.51497753       7.87218808      10.00124263        2       0.00003896       0.00004511       0.00084928
Ti      -1.51483691       9.62155347      11.29084869        0       0.00008478       0.00003089       0.00073941
Ti       0.00000275       8.74687385       8.71025066        0       0.00003874       0.00002071       0.00110683
O       -1.51499181       9.62150350       7.77071142        1      -0.00000042       0.00000157       0.00130154
O        0.00013468       8.74681768      12.23008024        3       0.00007413       0.00012935       0.10890744
C        6.06001445      -0.00006530      10.00113743        2       0.00005829       0.00004144       0.00078194
Ti       6.05997296       1.74937367      11.29091178        0       0.00001364      -0.00002768       0.00066933
Ti       7.57499894       0.87471071       8.71031485        0       0.00003249       0.00002513       0.00112219
O        6.06001630       1.74934827       7.77069590        1       0.00002740       0.00003230       0.00129302
O        7.57485818       0.87472389      12.23008024        3       0.00005863       0.00005464       0.08239963
C        4.54494608       2.62403446      10.00104920        2       0.00003029       0.00001952       0.00081585
Ti       4.54502154       4.37337638      11.29092233        0       0.00002793       0.00001476       0.00075815
Ti       6.05999373       3.49873374       8.71030296        0       0.00000563       0.00001592       0.00109345
O        4.54499460       4.37346363       7.77070073        1       0.00002168       0.00005642       0.00135587
O        6.05973504       3.49837761      12.23008024        3       0.00012165      -0.00003799       0.09070316
C        3.02997450       5.24816869      10.00116187        2       0.00004236       0.00005373       0.00084149
Ti       3.02998097       6.99751718      11.29085836        0       0.00008052       0.00011662       0.00080310
Ti       4.54501649       6.12279021       8.71033019        0       0.00000763       0.00002343       0.00120268
O        3.02998001       6.99750290       7.77072285        1       0.00006628       0.00004132       0.00138774
O        4.54491443       6.12272999      12.23008024        3       0.00005755       0.00006190       0.08444422
C        1.51500771       7.87218839      10.00123680        2       0.00006295       0.00008685       0.00082947
Ti       1.51494481       9.62153826      11.29084140        0       0.00010428       0.00006840       0.00072925
Ti       3.03000217       8.74686316       8.71029078        0       0.00004744       0.00003994       0.00118718
O        1.51500252       9.62151495       7.77071803        1       0.00006376       0.00002746       0.00132514
O        3.03011936       8.74711262      12.23008024        3       0.00009179       0.00014604       0.10504795
C        9.09004271       0.00000764      10.00120144        2       0.00006157       0.00008483       0.00086781
Ti       9.08998721       1.74934685      11.29094565        0       0.00003208       0.00006686       0.00073979
Ti      10.60500273       0.87469779       8.71028945        0       0.00003475       0.00005360       0.00122038
O        9.09002804       1.74937021       7.77072757        1       0.00005758       0.00005898       0.00138413
O       10.60509950       0.87488783      12.23008024        3       0.00001041       0.00012555       0.10372463
C        7.57501941       2.62406281      10.00112645        2       0.00000802       0.00000865       0.00082285
Ti       7.57491264       4.37336502      11.29095645        0      -0.00001330       0.00001025       0.00075258
Ti       9.08998172       3.49874504       8.71034560        0       0.00002361       0.00004547       0.00121275
O        7.57501972       4.37345286       7.77072222        1       0.00000787       0.00003891       0.00139568
O        9.08999503       3.49862313      12.23008024        3      -0.00002329       0.00005482       0.08494278
C        6.06000999       5.24810424      10.00117080        2       0.00000091       0.00001402       0.00088908
Ti       6.05998795       6.99749024      11.29095286        0       0.00001574       0.00005984       0.00081673
Ti       7.57499232       6.12278810       8.71035289        0       0.00002586       0.00001735       0.00125167
O        6.06000922       6.99751547       7.77073807        1       0.00003158       0.00004147       0.00144742
O        7.57500783       6.12286160      12.23008024        3       0.00002214       0.00002493       0.08487415
C        4.54501843       7.87222651      10.00120299        2       0.00005952       0.00006979       0.00092341
Ti       4.54496398       9.62154919      11.29088581        0       0.00012570       0.00014468       0.00079996
Ti       6.06000709       8.74686181       8.71029362        0       0.00002655       0.00001098       0.00124962
O        4.54499797       9.62155065       7.77071971        1       0.00006608       0.00005314       0.00141682
O        6.06013030       8.74678516      12.23008024        3       0.00008566       0.00014890       0.09937895
C        0.04504521       0.06753120      17.44586971       10       0.00021352       0.00014626      -0.02212841
C        1.25705562       0.76728193      17.44586971       10      -0.00334908      -0.00143164      -0.03106144
C       -1.16703124       2.16671257      17.44586971       10       0.00018349       0.00193049      -0.02602699
C        0.04494491       2.86644181      17.44586971       10      -0.00009475      -0.00131666      -0.04000329
C       -2.37892039       4.26602304      17.44586971       10      -0.00104833       0.00046008      -0.03598842
C       -1.16700359       4.96575927      17.44586971       10       0.00074108      -0.00059511      -0.02985480
C       -3.59096513       6.36530351      17.44586971       10      -0.00113163       0.00151747      -0.03313222
C       -2.37902479       7.06500918      17.44586971       10       0.00067853      -0.00202151      -0.02880194
C       -4.80308635       8.46451242      17.44586971       10       0.00117053       0.00062201      -0.02795812
C       -3.59109824       9.16424461      17.44586971       10      -0.00076866      -0.00048580      -0.03747807
C        2.46900759       0.06749287      17.44586971       10       0.00134131      -0.00007868      -0.02715015
C        3.68099660       0.76720442      17.44586971       10      -0.00241725      -0.00049081      -0.03837227
C        1.25695122       2.16675838      17.44586971       10       0.00203462       0.00150302      -0.02616327
C        2.46890439       2.86653839      17.44586971       10      -0.00214666       0.00003498      -0.03596514
C        0.04497360       4.26599651      17.44586971       10      -0.00092906       0.00006976      -0.03411622
C        1.25695332       4.96574011      17.44586971       10      -0.00111537       0.00149077      -0.02877903
C       -1.16695549       6.36527633      17.44586971       10      -0.00059069       0.00100856      -0.03963780
C        0.04497369       7.06500603      17.44586971       10       0.00098438      -0.00004539      -0.02281331
C       -2.37905951       8.46444266      17.44586971       10       0.00078309       0.00071212      -0.03672152
C       -1.16707249       9.16419672      17.44586971       10       0.00039033       0.00150715      -0.02787298
C        4.89298620       0.06744009      17.44586971       10      -0.00014494      -0.00134462      -0.03887021
C        6.10501676       0.76721376      17.44586971       10       0.00065637      -0.00030112      -0.03566212
C        3.68089136       2.16673210      17.44586971       10       0.00140348      -0.00002596      -0.03618490
C        4.89292570       2.86648128      17.44586971       10       0.00073833       0.00067764      -0.02715812
C        2.46888269       4.26607037      17.44586971       10       0.00089945      -0.00243314      -0.03954445
C        3.68092665       4.96578306      17.44586971       10      -0.00098817       0.00227753      -0.03170958
C        1.25694774       6.36528196      17.44586971       10      -0.00085191      -0.00089318      -0.03522635
C        2.46898663       7.06498541      17.44586971       10      -0.00152970      -0.00010110      -0.02649788
C        0.04495931       8.46447221      17.44586971       10      -0.00078571       0.00010946      -0.03144459
C        1.25695240       9.16424358      17.44586971       10       0.00002583       0.00117002      -0.02665554
C        7.31707738       0.06748090      17.44586971       10      -0.00052467      -0.00168777      -0.03594108
C        8.52911064       0.76721608      17.44586971       10      -0.00090769      -0.00088912      -0.03915906
C        6.10499185       2.16673163      17.44586971       10      -0.00109179      -0.00012224      -0.02776065
C        7.31702524       2.86649550      17.44586971       10       0.00051338      -0.00119692      -0.02611569
C        4.89291769       4.26603676      17.44586971       10       0.00100420      -0.00166462      -0.02693085
C        6.10496312       4.96579139      17.44586971       10       0.00083828      -0.00025522      -0.02538131
C        3.68093820       6.36532732      17.44586971       10       0.00202690      -0.00022992      -0.03357994
C        4.89298247       7.06509127      17.44586971       10      -0.00216122      -0.00164437      -0.03616889
C        2.46885707       8.46443899      17.44586971       10       0.00229027       0.00031212      -0.03990721
C        3.68094837       9.16421597      17.44586971       10      -0.00146335      -0.00006821      -0.03427935
C        9.74103266       0.06745941      17.44586971       10       0.00064478       0.00032321      -0.02835837
C       10.95307952       0.76722716      17.44586971       10      -0.00130787      -0.00080455      -0.03574890
C        8.52907845       2.16671260      17.44586971       10      -0.00078121       0.00185538      -0.03139332
C        9.74105117       2.86653263      17.44586971       10       0.00103359      -0.00168318      -0.03292270
C        7.31702648       4.26602091      17.44586971       10      -0.00086388       0.00043751      -0.02601941
C        8.52903489       4.96579801      17.44586971       10       0.00095875      -0.00061618      -0.02683147
C        6.10499743       6.36531901      17.44586971       10      -0.00003781       0.00112190      -0.02760651
C        7.31701883       7.06509201      17.44586971       10      -0.00028183      -0.00208917      -0.03251363
C        4.89289451       8.46450353      17.44586971       10       0.00323427       0.00124520      -0.02927373
C        6.10493460       9.16432586      17.44586971       10      -0.00034545      -0.00030957      -0.03920073
