132
Lattice="12.12 0.0 0.0 -6.06 10.496227893867395 0.0 0.0 0.0 40.0" Properties=species:S:1:pos:R:3:tags:I:1:forces:R:3 energy=-1208.6672151131231 stress="0.0028273279728300293 2.426601129203899e-06 -1.755020626476719e-06 2.426601129203899e-06 0.0028304817725592394 4.728806332910749e-07 -1.755020626476719e-06 4.728806332910749e-07 0.0019173054867668003" pbc="T T F"
C       -0.00002697      -0.00134330      10.00213516        2      -0.00037004      -0.00183225      -0.00240612
Ti      -0.00174145       1.74887536      11.29635818        0       0.00026313       0.00114540       0.00473057
Ti       1.51500831       0.87352595       8.71185932        0      -0.00208340       0.00101354      -0.00068923
O       -0.00029233       1.74830458       7.77263646        1      -0.00010514      -0.00028842       0.00519490
O        1.51589986       0.87271648      12.23008024        3       0.00058017      -0.00016112       0.06886833
C       -1.51507302       2.62289929      10.00441867        2      -0.00150503       0.00074867       0.00075056
Ti      -1.51520427       4.37118233      11.29781826        0       0.00520517       0.00240860       0.00505370
Ti       0.00033056       3.49762053       8.71197631        0       0.00011115      -0.00056988       0.00301896
O       -1.51489544       4.37183227       7.77286477        1      -0.00011111      -0.00072449       0.00489892
O        0.00157263       3.49801220      12.23008024        3      -0.00144185      -0.00071820       0.05135971
C       -3.02963993       5.24649069      10.00272150        2      -0.00195986      -0.00011877      -0.00089964
Ti      -3.03017890       6.99549098      11.29223579        0       0.00083202      -0.00263632       0.00316231
Ti      -1.51473739       6.12128568       8.71153235        0      -0.00021560      -0.00040451       0.00176868
O       -3.02977694       6.99592874       7.77207038        1       0.00047555       0.00052311      -0.00016064
O       -1.51484873       6.12341181      12.23008024        3      -0.00087053      -0.00157087       0.05601437
C       -4.54497220       7.87066573      10.00170632        2      -0.00074029       0.00009922      -0.00410518
Ti      -4.54503320       9.62005113      11.29204072        0      -0.00241045       0.00168166       0.00191573
Ti      -3.02976055       8.74548739       8.71124756        0      -0.00105745      -0.00168042      -0.00170957
O       -4.54489157       9.62041069       7.77200190        1      -0.00018882       0.00019799      -0.00085619
O       -3.03000574       8.74555591      12.23008024        3      -0.00018735       0.00040242       0.06167437
C        3.03001569      -0.00121812      10.00166336        2       0.00030863      -0.00023413      -0.00210931
Ti       3.03001105       1.74819372      11.29203472        0      -0.00194491       0.00166210       0.00163211
Ti       4.54528684       0.87341615       8.71107782        0       0.00110639       0.00141624      -0.00056196
O        3.03000989       1.74798691       7.77194993        1      -0.00036365       0.00013226      -0.00089221
O        4.54489764       0.87355171      12.23008024        3      -0.00039841      -0.00119930       0.06866580
C        1.51510181       2.62294930      10.00219040        2       0.00167874       0.00079746      -0.00324534
Ti       1.51480993       4.37212598      11.29213892        0      -0.00304084      -0.00227092       0.00353150
Ti       3.02996678       3.49751428       8.71136930        0       0.00043076      -0.00158435      -0.00351184
O        1.51488589       4.37206616       7.77214415        1      -0.00191675      -0.00139127      -0.00114719
O        3.03064828       3.49728185      12.23008024        3       0.00089897      -0.00001456       0.07142736
C        0.00040664       5.24699845      10.00251934        2       0.00110273       0.00048527      -0.00261996
Ti      -0.00017629       6.99618369      11.29193137        0      -0.00285143      -0.00358288       0.00317132
Ti       1.51515489       6.12140944       8.71150537        0       0.00017197       0.00185200      -0.00363277
O        0.00007356       6.99593006       7.77179247        1      -0.00069452       0.00105676      -0.00011308
O        1.51499923       6.12206326      12.23008024        3       0.00028830      -0.00000884       0.06300860
C       -1.51493817       7.87082614      10.00149801        2      -0.00021589      -0.00012006      -0.00188944
Ti      -1.51518164       9.62054114      11.29201653        0       0.00216717      -0.00189165       0.00163323
Ti       0.00033785       8.74546877       8.71084704        0      -0.00053607       0.00070789       0.00080152
O       -1.51483402       9.62022877       7.77148274        1      -0.00016941       0.00004273       0.00024668
O       -0.00047557       8.74562477      12.23008024        3       0.00025663      -0.00080126       0.06910360
C        6.06011210      -0.00127303      10.00167372        2       0.00031222      -0.00014200      -0.00226967
Ti       6.06065049       1.74876534      11.29207170        0       0.00210512       0.00011194       0.00373619
Ti       7.57532292       0.87338498       8.71210208        0      -0.00036207       0.00012700      -0.00099583
O        6.06050732       1.74793822       7.77206398        1      -0.00094527      -0.00001734      -0.00028071
O        7.57315341       0.87257725      12.23008024        3       0.00055845       0.00081910       0.05976293
C        4.54512239       2.62293726      10.00151783        2      -0.00046230       0.00049880      -0.00353721
Ti       4.54524891       4.37221101      11.29120571        0       0.00127706      -0.00214844       0.00328053
Ti       6.06007353       3.49764012       8.71094586        0      -0.00049837      -0.00176438      -0.00215179
O        4.54499148       4.37191499       7.77093456        1       0.00068510       0.00004813       0.00082709
O        6.06036635       3.49765324      12.23008024        3      -0.00055035       0.00003681       0.08913321
C        3.03046740       5.24699219      10.00123735        2       0.00008422       0.00092232      -0.00256081
Ti       3.03024107       6.99594882      11.29152797        0      -0.00137497       0.00117525       0.00107908
Ti       4.54506818       6.12162147       8.70917868        0      -0.00119448       0.00010524       0.00669752
O        3.02982981       6.99643294       7.77104741        1       0.00031131      -0.00042515       0.00100255
O        4.54546514       6.12107730      12.23008024        3      -0.00070229       0.00069623       0.07407529
C        1.51514334       7.87078899      10.00157332        2       0.00121778      -0.00056289      -0.00323494
Ti       1.51505387       9.62045466      11.29238391        0       0.00064115       0.00314738       0.00223488
Ti       3.03017544       8.74552228       8.71164932        0      -0.00129668      -0.00097275      -0.00340657
O        1.51537119       9.62046820       7.77213031        1      -0.00120051      -0.00035120      -0.00097559
O        3.02977896       8.74496477      12.23008024        3       0.00003919      -0.00035495       0.07378303
C        9.09008686      -0.00170206      10.00305922        2      -0.00006432      -0.00104892      -0.00300253
Ti       9.09091032       1.74808912      11.29897583        0      -0.00062260      -0.00468323       0.00360033
Ti      10.60516470       0.87323083       8.71210997        0       0.00045466      -0.00024374       0.00260833
O        9.09037783       1.74813978       7.77332693        1       0.00070004       0.00013499       0.00337688
O       10.60596838       0.87166283      12.23008024        3      -0.00051413       0.00230078       0.03877451
C        7.57523243       2.62261263      10.00244871        2      -0.00071008       0.00139466      -0.00141143
Ti       7.57480699       4.37211176      11.29134600        0      -0.00498120       0.00266074       0.00020934
Ti       9.09004843       3.49745755       8.71309187        0       0.00026265      -0.00002777       0.00015696
O        7.57537159       4.37207133       7.77239531        1       0.00189660      -0.00126012      -0.00030618
O        9.08803344       3.49808730      12.23008024        3       0.00003654      -0.00014697       0.10642947
C        6.05929981       5.24723677      10.00087341        2      -0.00066051       0.00016043      -0.00204872
Ti       6.06003479       6.99589579      11.29126168        0       0.00256239       0.00041395       0.00342284
Ti       7.57495213       6.12144663       8.71127934        0       0.00135780       0.00091379      -0.00284021
O        6.06031838       6.99645986       7.77105056        1       0.00017085      -0.00083816       0.00054920
O        7.57470600       6.12096300      12.23008024        3      -0.00028477      -0.00011041       0.07768129
C        4.54512697       7.87037598      10.00124416        2      -0.00089988      -0.00051020      -0.00222833
Ti       4.54493596       9.62034724      11.29232520        0       0.00050474       0.00298511       0.00347754
Ti       6.05995458       8.74577650       8.71128802        0       0.00155259      -0.00002184      -0.00227213
O        4.54498468       9.62056707       7.77221978        1       0.00047033       0.00187631      -0.00015254
O        6.06060162       8.74523996      12.23008024        3       0.00041533      -0.00028135       0.06242381
C        0.06639720       0.05774727      17.84625431       10       0.00439188      -0.00091922      -0.03574357
C        1.27580823       0.75947623      17.85464254       10       0.00287574      -0.00012310       0.01340902
C       -1.12902856       2.14793700      17.82188364       10      -0.00162278       0.00151082       0.48750232
C        0.06308669       2.85716745      17.82952238       10       0.00147354      -0.00317911       0.02662409
C       -2.36453306       4.28434863      17.82187809       10       0.00329609       0.00548316       0.26187132
C       -1.15317846       4.96208964      17.82951982       10       0.00538379      -0.00175193       0.02862549
C       -3.57570089       6.36581887      17.84625376       10      -0.00120253       0.00280470       0.02493390
C       -2.36298925       7.06211084      17.85464234       10      -0.00444474       0.00118768       0.01242208
C       -4.78674551       8.45888685      17.84436137       10       0.00209230       0.00066243      -0.01302255
C       -3.57496830       9.15830818      17.85565103       10      -0.00098850       0.00177740      -0.01229225
C        2.48639578       0.06063452      17.85667605       10      -0.00064744      -0.00045803      -0.01928597
C        3.69694016       0.76108668      17.85565094       10      -0.00372119      -0.00150511      -0.01244321
C        1.27895399       2.15767288      17.84625452       10       0.00162340      -0.00092228      -0.02545792
C        2.48632950       2.86008835      17.83719439       10       0.00023307       0.00034250      -0.01780607
C        0.05992229       4.25952478      17.80339450       10       0.00527835      -0.00255196       0.14621666
C        1.27078988       4.95859864      17.81506445       10       0.00138519       0.00004403      -0.05914511
C       -1.15064766       6.36474344      17.84625376       10      -0.00287187       0.00119740       0.01149743
C        0.06134913       7.06003507      17.83719449       10      -0.00362510      -0.00078561      -0.04676514
C       -2.36311805       8.46025848      17.85667626       10       0.00064264       0.00123462      -0.01496352
C       -1.15115512       9.15822629      17.85565103       10       0.00027492      -0.00022693      -0.02037130
C        4.90736070       0.06059840      17.85667605       10      -0.00271342      -0.00257587      -0.01540262
C        6.11815816       0.75958083      17.85464254       10      -0.00506662       0.00292376       0.00546259
C        3.69681972       2.16018693      17.84436124       10      -0.00136986      -0.00237402      -0.01930390
C        4.90746404       2.86015595      17.83719439       10      -0.00287050       0.00121676      -0.01977425
C        2.48453181       4.25947089      17.82331089       10      -0.00136265       0.00050851      -0.02973240
C        3.69629220       4.95962203      17.82052303       10      -0.00035086      -0.00129293      -0.01730864
C        1.27276882       6.35935419      17.82331079       10      -0.00333682       0.00079181      -0.02554698
C        2.48453929       7.05926813      17.82052292       10       0.00272594      -0.00375553      -0.00949507
C        0.06047351       8.45869940      17.84436137       10       0.00062777      -0.00211290       0.00505735
C        1.27201812       9.15739564      17.83719424       10       0.00110403      -0.00080979      -0.03610029
C        7.32816298       0.05834755      17.84625431       10      -0.00303220      -0.00041040       0.01022899
C        8.54160383       0.76163246      17.82952219       10       0.00213105      -0.00306702       0.03823195
C        6.11476045       2.15786030      17.84625452       10      -0.00273481       0.00198655       0.01837898
C        7.32979089       2.85799459      17.82952238       10      -0.00054343      -0.00024549       0.00041460
C        4.90838295       4.25968699      17.82331089       10      -0.00180054      -0.00037949      -0.03324943
C        6.12186492       4.95911509      17.81506445       10      -0.00205152       0.00142353      -0.05245935
C        3.69655408       6.35946432      17.81744503       10       0.00178974      -0.00261705      -0.03040186
C        4.90866102       7.05958465      17.82052292       10       0.00030730      -0.00064826      -0.00238042
C        2.48452445       8.45864272      17.82331062       10       0.00019868      -0.00224140      -0.02632763
C        3.69667421       9.16051928      17.81506404       10       0.00100591      -0.00183406      -0.05317775
C        9.75660303       0.06236327      17.80339445       10       0.00566071      -0.00032363       0.14018923
C       10.97264920       0.76086331      17.82952219       10       0.00620141       0.00088856       0.02632649
C        8.52267239       2.14949189      17.82188364       10      -0.00021351      -0.00261569       0.25472334
C        9.75466044       2.86148049      17.57752438       10      -0.00175341       0.00310779      -1.98586515
C        7.33240705       4.26012809      17.80339450       10       0.00045072       0.00146492       0.13029304
C        8.54545143       4.96338915      17.82951982       10       0.00068293       0.00135749      -0.00539454
C        6.12079113       6.35976056      17.82331079       10       0.00249775       0.00291654      -0.03956847
C        7.33239799       7.06037182      17.83719449       10      -0.00062662       0.00121004      -0.01400440
C        4.90902067       8.45906214      17.82331062       10      -0.00016824       0.00065806      -0.03640772
C        6.12181660       9.15720764      17.83719424       10       0.00029598      -0.00275051      -0.01713516
O        9.83040649       2.81264779      15.98964870       11       0.00080749       0.00681045      -0.00245422
H        9.06001722       3.27321234      15.61289794       12       0.00289078       0.00178177       0.00064728
