132
Lattice="12.12 0.0 0.0 -6.06 10.496227893867395 0.0 0.0 0.0 40.0" Properties=species:S:1:pos:R:3:tags:I:1:forces:R:3 energy=-1209.2536925037798 stress="0.002831096360815082 2.355808779615339e-06 -2.702906287902808e-06 2.355808779615339e-06 0.00283353712745058 1.4148282308976897e-07 -2.702906287902808e-06 1.4148282308976897e-07 0.0020828160631673137" pbc="T T F"
C        0.00161260      -0.00180703      10.00382408        2      -0.00052949       0.00074299      -0.00157485
Ti      -0.00089538       1.74927002      11.30162777        0      -0.00029610      -0.00048654       0.00065086
Ti       1.51603335       0.87366265       8.71299412        0      -0.00106603       0.00042815      -0.00013358
O       -0.00004504       1.74884107       7.77683447        1       0.00163772      -0.00097403      -0.00434897
O        1.51811794       0.87200240      12.23008024        3       0.00077858       0.00041310       0.12858319
C       -1.51411979       2.62307302      10.01020154        2       0.00059204      -0.00045228      -0.00550733
Ti      -1.51286639       4.37142627      11.30176776        0       0.00287731       0.00084300       0.00028089
Ti       0.00197227       3.49776890       8.71613128        0      -0.00197413      -0.00109195      -0.00476757
O       -1.51369012       4.37088029       7.77749682        1      -0.00039270       0.00122103      -0.00556914
O        0.00448765       3.49832112      12.23008024        3       0.00323455       0.00041100       0.07697238
C       -3.02863248       5.24707358      10.00492491        2       0.00151984      -0.00047235      -0.00160776
Ti      -3.02923451       6.99555603      11.29203939        0       0.00040500      -0.00079434       0.00083158
Ti      -1.51324395       6.12115644       8.71346130        0      -0.00056463      -0.00062133      -0.00139986
O       -3.02789861       6.99541055       7.77241257        1      -0.00059408      -0.00030254       0.00088796
O       -1.51375581       6.12481660      12.23008024        3       0.00066672       0.00035086       0.10821488
C       -4.54351177       7.87073087      10.00146354        2      -0.00028214       0.00102171       0.00098303
Ti      -4.54344998       9.62001559      11.29156888        0      -0.00124225       0.00059120       0.00116478
Ti      -3.02835862       8.74541957       8.71093918        0      -0.00070477      -0.00087033       0.00131626
O       -4.54362505       9.62070163       7.77191465        1      -0.00101297       0.00072038       0.00144805
O       -3.02800873       8.74634697      12.23008024        3      -0.00049332       0.00080109       0.10260336
C        3.03136636      -0.00126470      10.00142928        2       0.00008236      -0.00029874       0.00117027
Ti       3.03104970       1.74812774      11.29160476        0      -0.00006781       0.00054984       0.00123508
Ti       4.54654966       0.87346583       8.71064613        0       0.00057267       0.00088944       0.00179392
O        3.03091025       1.74798815       7.77178279        1      -0.00091606       0.00002676       0.00170760
O        4.54553076       0.87310694      12.23008024        3      -0.00050723      -0.00060911       0.08515706
C        1.51683118       2.62299006      10.00375182        2      -0.00033758       0.00000757      -0.00282231
Ti       1.51710414       4.37265112      11.29183783        0      -0.00078471      -0.00110912      -0.00024042
Ti       3.03151411       3.49740919       8.71113437        0      -0.00119147      -0.00054173       0.00030794
O        1.51465446       4.37135250       7.77320220        1       0.00277697       0.00151663      -0.00062945
O        3.03219821       3.49691222      12.23008024        3       0.00091501       0.00180153       0.09337239
C        0.00204911       5.24741667      10.00456091        2      -0.00013428      -0.00038859      -0.00216524
Ti       0.00139005       6.99598871      11.29175844        0      -0.00177566       0.00132563       0.00034357
Ti       1.51671588       6.12166925       8.71108694        0       0.00023712      -0.00005755       0.00085603
O        0.00106521       6.99570477       7.77220050        1      -0.00007941      -0.00089687       0.00056155
O        1.51681850       6.12247572      12.23008024        3       0.00025251      -0.00073193       0.11236996
C       -1.51343411       7.87081901      10.00182226        2      -0.00054670       0.00100793       0.00014268
Ti      -1.51333864       9.62029552      11.29193674        0      -0.00139547      -0.00030467       0.00056974
Ti       0.00170990       8.74554147       8.71098884        0      -0.00013367       0.00022242       0.00169131
O       -1.51335207       9.62015521       7.77120930        1       0.00014341      -0.00005146       0.00115608
O        0.00101089       8.74549436      12.23008024        3      -0.00190540       0.00033571       0.11609280
C        6.06143666      -0.00146023      10.00179055        2      -0.00121716      -0.00054073       0.00005028
Ti       6.06067014       1.74885625      11.29105499        0       0.00191406      -0.00058437       0.00090192
Ti       7.57678867       0.87346339       8.71410127        0       0.00038155       0.00023384      -0.00216527
O        6.06260389       1.74795460       7.77240091        1      -0.00053779       0.00007209       0.00177853
O        7.57253895       0.87211224      12.23008024        3       0.00005287      -0.00078842       0.09219172
C        4.54613336       2.62287485      10.00114324        2      -0.00091032      -0.00044598       0.00071104
Ti       4.54591547       4.37229973      11.29133166        0       0.00164605      -0.00178096       0.00128944
Ti       6.06130679       3.49761477       8.71098593        0       0.00002477      -0.00034461       0.00204642
O        4.54667884       4.37155901       7.77115089        1      -0.00059828       0.00130586       0.00099734
O        6.05998294       3.49757140      12.23008024        3       0.00030976      -0.00040092       0.11562706
C        3.03176796       5.24714480      10.00112470        2       0.00081415      -0.00004847      -0.00045813
Ti       3.03133625       6.99595289      11.29116909        0      -0.00062347       0.00007563       0.00096242
Ti       4.54660111       6.12156939       8.71106347        0      -0.00115808       0.00035709      -0.00459536
O        3.03121229       6.99654914       7.77106357        1      -0.00143463       0.00043830       0.00122358
O        4.54612764       6.12121807      12.23008024        3       0.00015449      -0.00054524       0.09281682
C        1.51663380       7.87071788      10.00144789        2      -0.00122788       0.00020333       0.00069919
Ti       1.51654044       9.61967026      11.29197826        0      -0.00203828       0.00073987       0.00070422
Ti       3.03155064       8.74536664       8.71141256        0      -0.00033726      -0.00052268       0.00088037
O        1.51692862       9.62102790       7.77258115        1      -0.00003062       0.00003918       0.00005991
O        3.03109041       8.74389200      12.23008024        3      -0.00039954      -0.00120013       0.09765014
C        9.09127639      -0.00212695      10.00546166        2       0.00009623       0.00006250      -0.00291089
Ti       9.09223993       1.74666898      11.30503286        0       0.00100979      -0.00320121       0.00118747
Ti      10.60650580       0.87303876       8.71652071        0      -0.00038683       0.00154292      -0.00428185
O        9.09249141       1.74862515       7.77808618        1      -0.00167517      -0.00008115      -0.00603650
O       10.60807963       0.87027513      12.23008024        3       0.00117666      -0.00197063       0.08372205
C        7.57603101       2.62272610      10.00531558        2       0.00127793      -0.00130944      -0.00188442
Ti       7.57353608       4.37321877      11.29021437        0       0.00093423      -0.00026957      -0.00032579
Ti       9.09150495       3.49741538       8.71863258        0      -0.00010507      -0.00040096      -0.00516614
O        7.57827926       4.37105067       7.77412783        1      -0.00340569       0.00197607      -0.00063080
O        9.08733398       3.49908530      12.23008024        3       0.00117656      -0.00143215       0.17822002
C        6.05995630       5.24759885      10.00117818        2       0.00080668      -0.00034714      -0.00059990
Ti       6.06109455       6.99593363      11.29126129        0       0.00171343       0.00113218       0.00109168
Ti       7.57654818       6.12152158       8.71118666        0      -0.00059255      -0.00032603       0.00118550
O        6.06224870       6.99644974       7.77129861        1      -0.00216439      -0.00092944       0.00061121
O        7.57555971       6.12214426      12.23008024        3       0.00033807      -0.00078181       0.09741454
C        4.54653568       7.87017013      10.00125253        2      -0.00034248      -0.00094697      -0.00037042
Ti       4.54658177       9.61890977      11.29212264        0      -0.00059183       0.00161811      -0.00001068
Ti       6.06164409       8.74560595       8.71108533        0      -0.00076170       0.00106530       0.00177605
O        4.54632920       9.62225507       7.77356809        1      -0.00012611      -0.00354818      -0.00096518
O        6.06261171       8.74482619      12.23008024        3      -0.00196604      -0.00014802       0.10930072
C        0.06430084       0.05726492      17.41993852       10       0.00293499      -0.00208198      -0.02367452
C        1.27366805       0.75885092      17.42832675       10      -0.00417623       0.00055024      -0.00665493
C       -1.13177575       2.14759131      17.39556785       10       0.00543374      -0.00078830       0.48934343
C        0.06069182       2.85642117      17.40320659       10       0.00305745       0.00152529       0.01321693
C       -2.36656031       4.28434818      17.39556230       10      -0.00297460      -0.00134638       0.25549572
C       -1.15507441       4.96172851      17.40320403       10      -0.00072016       0.00252981       0.02802070
C       -3.57837212       6.36555066      17.41993797       10      -0.00078019       0.00140228       0.00728510
C       -2.36564873       7.06160422      17.42832655       10       0.00185978       0.00000210       0.00604781
C       -4.78942959       8.45840429      17.41804558       10       0.00600431       0.00076659      -0.01285032
C       -3.57752384       9.15769245      17.42933524       10      -0.00004338       0.00094765      -0.03464684
C        2.48416569       0.05994840      17.43036026       10       0.00025477      -0.00084639      -0.02217439
C        3.69460694       0.76037664      17.42933515       10      -0.00220267      -0.00040264      -0.03802634
C        1.27650259       2.15697934      17.41993873       10       0.00417087       0.00190588      -0.02764751
C        2.48374151       2.85948433      17.41087860       10       0.00255261       0.00043991      -0.04067340
C        0.05781926       4.25873929      17.37707871       10      -0.00343507       0.00080786       0.13478158
C        1.26853421       4.95799738      17.38874866       10      -0.00220188       0.00150771      -0.06890763
C       -1.15315622       6.36432779      17.41993797       10      -0.00148774       0.00419219      -0.01703332
C        0.05868067       7.05956744      17.41087870       10       0.00379316      -0.00033888      -0.03123786
C       -2.36558288       8.45969672      17.43036047       10       0.00134298       0.00219978      -0.03320928
C       -1.15354646       9.15767301      17.42933524       10       0.00065353       0.00102746      -0.02795426
C        4.90515957       0.06000374      17.43036026       10      -0.00316493      -0.00499704      -0.03934545
C        6.11609018       0.75904750      17.42832675       10      -0.00553585      -0.00044822       0.00130523
C        3.69419216       2.15952626      17.41804545       10       0.00260886      -0.00114253      -0.02275991
C        4.90478269       2.85956976      17.41087860       10       0.00053485      -0.00125514      -0.02729242
C        2.48213136       4.25891409      17.39699510       10      -0.00006728      -0.00036148      -0.05453384
C        3.69388981       4.95903171      17.39420724       10      -0.00108471      -0.00042462      -0.02183479
C        1.26994858       6.35878427      17.39699500       10       0.00223136       0.00069618      -0.05071059
C        2.48185721       7.05858660      17.39420713       10       0.00401894      -0.00367936      -0.00875842
C        0.05818372       8.45812770      17.41804558       10      -0.00215210       0.00103309      -0.01551811
C        1.26981178       9.15682475      17.41087845       10      -0.00174973       0.00088195      -0.03585694
C        7.32623040       0.05782259      17.41993852       10      -0.00563643      -0.00067753      -0.01161905
C        8.53986070       0.76094777      17.40320640       10      -0.00438269       0.00083275       0.01887990
C        6.11229917       2.15731697      17.41993873       10       0.00107129       0.00057255       0.01069143
C        7.32741985       2.85726937      17.40320659       10       0.00131274       0.00087778       0.00457492
C        4.90592917       4.25907430      17.39699510       10      -0.00025337      -0.00105087      -0.03558721
C        6.11956603       4.95842536      17.38874866       10      -0.00419301       0.00302601      -0.04862007
C        3.69382673       6.35886528      17.39112924       10       0.00743126      -0.00161645      -0.04872927
C        4.90602472       7.05898619      17.39420713       10       0.00176261      -0.00121601      -0.02189963
C        2.48216442       8.45796459      17.39699483       10       0.00007372      -0.00109086      -0.04507759
C        3.69440988       9.15981774      17.38874825       10      -0.00240614      -0.00046931      -0.07102712
C        9.75478341       0.06172702      17.37707866       10      -0.00234541      -0.00016236       0.13711824
C       10.97074489       0.76034547      17.40320640       10      -0.00228421      -0.00258122       0.00408912
C        8.52077622       2.14905563      17.39556785       10       0.00069875       0.00399409       0.23133594
C        9.75241000       2.86170731      17.15120859       10       0.00745409      -0.00229091      -2.04225825
C        7.33033913       4.25943384      17.37707871       10      -0.00562545       0.00249802       0.13822110
C        8.54311271       4.96326177      17.40320403       10       0.00143015       0.00051676       0.00051175
C        6.11820647       6.35917946      17.39699500       10       0.00131076       0.00145002      -0.04058936
C        7.32960425       7.06003795      17.41087870       10       0.00188179      -0.00123778      -0.03104006
C        4.90654821       8.45846507      17.39699483       10       0.00410875      -0.00036979      -0.04354757
C        6.11929229       9.15680355      17.41087845       10      -0.00039212      -0.00253865      -0.04369566
O        9.83005932       2.81695302      15.56793551       11       0.00070168      -0.00264947       0.00203150
H        9.07483940       3.29711933      15.18231561       12      -0.00035430       0.00774067      -0.00435549
