131
Lattice="12.12 0.0 0.0 -6.06 10.496227893867395 0.0 0.0 0.0 40.0" Properties=species:S:1:pos:R:3:tags:I:1:forces:R:3 energy=-1204.6721438813704 stress="0.0027469237640591953 -2.511713911429707e-08 -4.1616199030734364e-07 -2.511713911429707e-08 0.0027468429460967714 2.654029023551744e-07 -4.1616199030734364e-07 2.654029023551744e-07 0.0029252414969128645" pbc="T T F"
C       -0.34568455      -0.44848248       9.99442881        2      -0.00434488       0.00198239       0.00231620
Ti      -0.34340179       1.30269941      11.29449208        0      -0.00125832       0.00192096       0.00161779
Ti       1.17270802       0.42778234       8.70527358        0      -0.00217404       0.00027353      -0.00243147
O       -0.32934857       1.29441426       7.76765786        1       0.00133786       0.00264873       0.00248313
O        1.15750397       0.43664290      12.23008024        3       0.00030594      -0.00143157      -0.21649654
C       -1.85183305       2.17386959       9.99294675        2      -0.00106116      -0.00123179       0.00182898
Ti      -1.85233671       3.91555251      11.29491195        0       0.00185830       0.00105615      -0.00093609
Ti      -0.33351616       3.05003963       8.70691000        0      -0.00595975      -0.00073619       0.00368226
O       -1.85153942       3.93203836       7.76743103        1      -0.00159556      -0.00301905       0.00215635
O       -0.33996469       3.04702820      12.23008024        3       0.00114077      -0.00052031      -0.27263893
C       -3.36982348       4.78903756       9.99408388        2      -0.00009710      -0.00043456       0.00052012
Ti      -3.36147077       6.53039361      11.27457602        0      -0.00014490       0.00151298      -0.00010105
Ti      -1.85191792       5.66577527       8.70450258        0       0.00094986       0.00119011       0.00072747
O       -3.35606801       6.56057256       7.78724620        1       0.00052471       0.00345312       0.00397817
O       -1.85215836       5.64861902      12.23008024        3       0.00074320       0.00115464      -0.21843390
C       -4.89242481       7.41545763       9.98988514        2      -0.00133699       0.00384382       0.00169361
Ti      -4.89344438       9.18438662      11.27559678        0      -0.00254008       0.00272498      -0.00351227
Ti      -3.35979479       8.30098598       8.76873625        0       0.00379945      -0.00158076       0.00493746
O       -4.86467643       9.17395260       7.78851719        1      -0.00071801       0.00097710      -0.00248576
O       -3.52404483       8.20587666      12.23008024        3      -0.00033768      -0.00090294      -0.27846471
C        2.69515330      -0.45086800      10.06786547        2      -0.00310335      -0.00233019      -0.00047004
Ti       2.67563841       1.30369762      11.27497718        0       0.00021435      -0.00160216      -0.00009226
Ti       4.20807688       0.41593935       8.76922258        0       0.00037292       0.00296332       0.00138935
O        2.69960361       1.28306994       7.78812738        1      -0.00179064       0.00012618       0.00064413
O        4.20830016       0.60742523      12.23008024        3      -0.00208234      -0.00414372      -0.27535231
C        1.17178632       2.18091816       9.99422239        2       0.00027679       0.00096206       0.00016885
Ti       1.18159742       3.92597989      11.30297704        0       0.00413703       0.00028516       0.00372331
Ti       2.69593405       3.04777899       8.70242267        0       0.00244164      -0.00505713       0.00321879
O        1.17932177       3.92400898       7.76453049        1      -0.00121552       0.00029429      -0.00250290
O        2.68865480       3.07641640      12.23008024        3      -0.00120313       0.00188807      -0.30728095
C       -0.33403218       4.78898594       9.99413399        2      -0.00139914       0.00038258       0.00153511
Ti      -0.34251212       6.53047136      11.27531676        0       0.00040320      -0.00093899      -0.00193654
Ti       1.17790137       5.67583741       8.70249419        0       0.00114736       0.00206151       0.00292970
O       -0.34816537       6.56123380       7.78798339        1       0.00136574      -0.00135409       0.00151996
O        1.19966534       5.65520661      12.23008024        3      -0.00011624       0.00004702      -0.30662760
C       -1.85225809       7.42402906      10.06722313        2       0.00235287      -0.00210719       0.00382112
Ti      -1.85178889       9.17253578      11.74222620        0      -0.00361416      -0.00635387      -0.00422129
Ti      -0.34488461       8.30109909       8.77003625        0       0.00083028      -0.00111432      -0.00224274
O       -1.85221260       9.17152648       7.83454409        1       0.00121499       0.00008396      -0.00309379
O       -0.17999804       8.20585955      12.23008024        3       0.00242014       0.00065991      -0.27653315
C        5.72132058      -0.45095058      10.06780346        2      -0.00177402       0.00074161       0.00191200
Ti       5.74047823       1.30330902      11.27474876        0       0.00033213       0.00310225      -0.00052376
Ti       7.24396665       0.42795629       8.70502840        0       0.00025038      -0.00038967      -0.00231861
O        5.71706239       1.28296944       7.78797506        1      -0.00171217       0.00002034       0.00162194
O        7.25871261       0.43638094      12.23008024        3      -0.00068760       0.00296303      -0.21557671
C        4.20817084       2.18667401       9.98981128        2      -0.00160587      -0.00144529      -0.00038025
Ti       4.20768295       3.92560921      11.29570339        0       0.00030231       0.00160809       0.00197954
Ti       5.72036970       3.04744824       8.70221278        0       0.00191412      -0.00044330       0.00277384
O        4.20834113       3.92283131       7.76066959        1      -0.00294398      -0.00100585       0.00203547
O        5.72667730       3.07684393      12.23008024        3       0.00399299      -0.00215838      -0.30500268
C        2.69459376       4.79945535       9.99141360        2       0.00233204      -0.00239778       0.00109611
Ti       2.69493249       6.54636611      11.29516479        0      -0.00256402      -0.00143054       0.00509000
Ti       4.20791273       5.67283568       8.70235079        0       0.00166928      -0.00015937       0.00355986
O        2.69200607       6.54801009       7.76075620        1       0.00098211      -0.00158562       0.00197856
O        4.20789910       5.67281376      12.23008024        3       0.00032769       0.00018440      -0.25144541
C        1.18837630       7.41592113       9.99036338        2       0.00166892      -0.00016904      -0.00400437
Ti       1.18984097       9.18477646      11.27554629        0       0.00281071      -0.00250453      -0.00344554
Ti       2.69005158       8.29489596       8.70226435        0       0.00204969       0.00389149       0.00358729
O        1.16026049       9.17408836       7.78837658        1       0.00306827       0.00045210      -0.00027911
O        2.71904827       8.28690788      12.23008024        3      -0.00017102      -0.00270811      -0.30414346
C        8.76198489      -0.44833689       9.99428252        2       0.00247469       0.00159852       0.00219675
Ti       8.75955029       1.30299975      11.29467862        0      -0.00016983       0.00059592      -0.00001605
Ti      10.26821765       0.42091480       8.70740307        0      -0.00087488      -0.00020230      -0.00096723
O        8.74598572       1.29446068       7.76758194        1      -0.00243253       0.00272784       0.00407596
O       10.26797802       0.42750958      12.23008024        3       0.00061312       0.00160741      -0.27163737
C        7.24425591       2.18118256       9.99435501        2       0.00201884      -0.00232926      -0.00113856
Ti       7.23320215       3.92606850      11.30331500        0       0.00291177      -0.00200175      -0.00078632
Ti       8.75060251       3.05014498       8.70751626        0      -0.00344630      -0.00008591      -0.00196619
O        7.23728068       3.92376198       7.76409824        1      -0.00036626       0.00023879       0.00429267
O        8.75534306       3.04713797      12.23008024        3       0.00200579      -0.00091071      -0.27158705
C        5.72115972       4.79900673       9.99147665        2      -0.00047377       0.00226085       0.00048422
Ti       5.72122076       6.54620170      11.29564835        0      -0.00125644      -0.00149640       0.00176561
Ti       7.23809661       5.67568675       8.70183466        0      -0.00391802      -0.00289724       0.00457644
O        5.72360897       6.54759059       7.76106073        1       0.00059558       0.00153255       0.00056982
O        7.21620715       5.65529912      12.23008024        3      -0.00071088      -0.00012445      -0.30573214
C        4.20787295       7.41991330       9.99166203        2       0.00068040      -0.00095873       0.00110053
Ti       4.20798830       9.16634276      11.30362424        0       0.00016415       0.00128093      -0.00137611
Ti       5.72537244       8.29483653       8.70339966        0       0.00072825       0.00114283      -0.00291582
O        4.20808367       9.16974315       7.76458508        1      -0.00126641       0.00158672       0.00331387
O        5.69702686       8.28652238      12.23008024        3       0.00101937      -0.00026279      -0.30373752
C        0.57081444       0.77546249      15.54191582       10      -0.00096399       0.00147236       0.11191358
C        1.78137985       1.47501329      15.52662377       10      -0.00450027      -0.00030073       0.10589316
C       -0.63967295       2.87407933      15.54723652       10       0.00057175       0.00201088       0.08103522
C        0.57215775       3.57383174      15.52952609       10       0.00254307      -0.00031414       0.08524880
C       -1.85206549       4.97157791      15.54191582       10       0.00156708       0.00151649       0.11174639
C       -0.64090107       5.67022184      15.52662377       10      -0.00053856      -0.00109238       0.10581804
C       -3.05899700       7.07599339      15.47880507       10      -0.00104460       0.00039561       0.11179204
C       -1.85194263       7.75841581      15.43698285       10      -0.00074412      -0.00196010      -0.38497435
C       -4.27052808       9.17435121      15.47880507       10       0.00240131      -0.00298849       0.11150913
C       -3.07590083       9.87827271      15.43698285       10      -0.00425980       0.00233423      -0.38252759
C        2.99662902       0.76854405      15.47880507       10      -0.00102783       0.00111960       0.11185964
C        4.20805817       1.47435342      15.44672639       10      -0.00040682       0.00468114       0.29746189
C        1.78441382       2.87294744      15.51558080       10      -0.00010043       0.00066445       0.07479647
C        2.99594981       3.57270773      15.49366639       10       0.00094127       0.00025613       0.05345960
C        0.57141666       4.97411077      15.51558080       10      -0.00093118      -0.00210113       0.07472196
C        1.78328662       5.67339720      15.49366639       10      -0.00158346       0.00008997       0.05357894
C       -0.64492227       7.07595067      15.47880507       10      -0.00064822      -0.00105123       0.11171903
C        0.57211727       7.77223459      15.44672639       10      -0.00021330      -0.00379548       0.29757000
C       -1.85198858       9.17172258      14.98417719       10       0.00031564      -0.00072206       1.03064239
C       -0.62809111       9.87837085      15.43698285       10       0.00391628       0.00064665      -0.38291263
C        5.41956399       0.76865928      15.47880507       10      -0.00022176      -0.00084226       0.11176943
C        6.63487572       1.47505312      15.52662377       10      -0.00017186       0.00019641       0.10585943
C        4.20788533       2.87028574      15.47906010       10       0.00204823       0.00533632       0.00706022
C        5.41984128       3.57267009      15.49366639       10       0.00389307       0.00106793       0.05354619
C        2.99562704       4.97287620      15.49098478       10      -0.00288547       0.00005521       0.11014750
C        4.20805019       5.67289142      15.48598401       10      -0.00066513       0.00071473       0.07343408
C        1.78106323       7.07419564      15.47906010       10      -0.00039734      -0.00169290       0.00711071
C        2.99526783       7.77260335      15.49366639       10      -0.00042716       0.00068381       0.05362927
C        0.56642468       9.17432793      15.47880507       10       0.00278465      -0.00272697       0.11171690
C        1.78586776       9.87352862      15.52662377       10       0.00202269       0.00021889       0.10585606
C        7.84539098       0.77541957      15.54191582       10      -0.00023902      -0.00021986       0.11185445
C        9.05717761       1.47486415      15.54885434       10      -0.00128469       0.00451575       0.07495667
C        6.63148962       2.87301097      15.51558080       10       0.00009247      -0.00262229       0.07480310
C        7.84373607       3.57380110      15.52952609       10      -0.00028293       0.00083181       0.08520063
C        5.42044374       4.97284363      15.49098478       10       0.00004341       0.00069245       0.11009356
C        6.63275273       5.67340852      15.49366639       10       0.00224971      -0.00124053       0.05353345
C        4.20805220       7.07292066      15.49098478       10      -0.00016820       0.00002862       0.11018052
C        5.42081702       7.77263821      15.49366639       10      -0.00005372       0.00057271       0.05357247
C        2.99491061       9.17171634      15.51558080       10      -0.00027075       0.00096391       0.07474819
C        4.20799668       9.87106974      15.52952609       10       0.00059206       0.00007762       0.08523102
C       10.26813600       0.77414766      15.54723652       10      -0.00054741       0.00200731       0.08110965
C       11.47908131       1.47500541      15.54885434       10      -0.00373342      -0.00030400       0.07501995
C        9.05555964       2.87398342      15.54723652       10       0.00104451       0.00197607       0.08104820
C       10.26789699       3.57232308      15.54885434       10       0.00156055       0.00244041       0.07487052
C        7.84460543       4.97408682      15.51558080       10      -0.00068027      -0.00041498       0.07474499
C        9.05685162       5.67029748      15.52662377       10       0.00154294      -0.00318816       0.10595388
C        6.63502334       7.07421985      15.47906010       10      -0.00099396      -0.00252212       0.00703220
C        7.84393647       7.77227987      15.44672639       10       0.00005694      -0.00479045       0.29761503
C        5.42105991       9.17175993      15.51558080       10       0.00238747      -0.00005860       0.07472537
C        6.63011421       9.87360593      15.52662377       10      -0.00267057      -0.00138512       0.10574976
O       -1.85199985       9.17214384      13.61130491       11      -0.00020189       0.00126412      -0.00059288
