130
Lattice="12.12 0.0 0.0 -6.06 10.496227893867395 0.0 0.0 0.0 40.0" Properties=species:S:1:pos:R:3:tags:I:1:forces:R:3 energy=-1199.683268028376 stress="0.0028151914838543714 3.252260173298102e-07 1.5395279592360674e-07 3.252260173298102e-07 0.0028145584967910016 -1.873743702063944e-07 1.5395279592360674e-07 -1.873743702063944e-07 0.00297913958561014" pbc="T T F"
C       -0.00010151      -0.00003241       9.96830852        2       0.00028590      -0.00039948      -0.00601379
Ti       0.00018266       1.74736762      11.29317656        0       0.00019489       0.00025495      -0.00204413
Ti       1.51501395       0.87457301       8.69202667        0       0.00006253       0.00027118       0.00700727
O       -0.00007766       1.74939258       7.77203342        1      -0.00000975      -0.00028332      -0.00259751
O        1.51313376       0.87390432      12.23159545        3      -0.00055140      -0.00020802      -0.14055102
C       -1.51544431       2.62475522       9.97006892        2       0.00003197      -0.00044058      -0.00650652
Ti      -1.51594679       4.37133383      11.28849955        0       0.00047479       0.00002737      -0.00290525
Ti       0.00013958       3.49976359       8.69198698        0       0.00031847      -0.00062283       0.00788162
O       -1.51580604       4.37287871       7.76963507        1       0.00020890       0.00003927      -0.00254864
O        0.00042823       3.49754464      12.23159545        3      -0.00009650      -0.00015563      -0.16138291
C       -3.03039572       5.24777307       9.96974050        2      -0.00034652       0.00013311      -0.00678786
Ti      -3.03203955       6.99692904      11.28972042        0       0.00038224       0.00016684      -0.00260861
Ti      -1.51427622       6.12334550       8.69296022        0       0.00009478      -0.00028742       0.00779535
O       -3.03102986       6.99709042       7.76995022        1       0.00025158       0.00025625      -0.00252998
O       -1.51358615       6.12335572      12.23159545        3       0.00032936      -0.00000856      -0.18532036
C       -4.54476835       7.87146342       9.97052653        2       0.00021383       0.00048854      -0.00584578
Ti      -4.54663378       9.62276361      11.29243839        0      -0.00006890       0.00024104      -0.00152560
Ti      -3.02888694       8.74655556       8.69266408        0      -0.00066682       0.00036681       0.00688665
O       -4.54500672       9.62133972       7.77187773        1      -0.00007102       0.00004460      -0.00262788
O       -3.03044432       8.74785874      12.23159545        3       0.00009402      -0.00009824      -0.16505092
C        3.03103577       0.00002374       9.96968510        2      -0.00033337      -0.00071836      -0.00607634
Ti       3.02966113       1.74966369      11.28559409        0       0.00020081       0.00026176      -0.00165936
Ti       4.54487740       0.87359834       8.69273610        0      -0.00031102       0.00031305       0.00859056
O        3.03059411       1.74972008       7.77057662        1      -0.00035630      -0.00039099      -0.00266363
O        4.54364100       0.87382451      12.23159545        3      -0.00043174      -0.00037503      -0.18965325
C        1.51555758       2.62490873       9.96966590        2      -0.00055128      -0.00040576      -0.00672199
Ti       1.51575661       4.37129107      11.28816412        0      -0.00004987       0.00027413      -0.00322082
Ti       3.02903837       3.49896160       8.69251421        0      -0.00003629      -0.00004872       0.00918500
O        1.51582542       4.37299355       7.76951901        1      -0.00039399       0.00001253      -0.00248024
O        3.02852680       3.49802490      12.23159545        3      -0.00036143      -0.00063399      -0.19101900
C       -0.00018476       5.24780723       9.96591717        2      -0.00031741       0.00005201      -0.00680153
Ti      -0.00053489       6.99672613      11.29218542        0      -0.00002622       0.00004960      -0.00399382
Ti       1.51444635       6.12346647       8.69341471        0       0.00012363      -0.00060149       0.00827348
O       -0.00003061       6.99740056       7.76914024        1      -0.00012002       0.00008611      -0.00217203
O        1.51334824       6.12332160      12.23159545        3      -0.00011495       0.00024961      -0.18058959
C       -1.51532176       7.87190122       9.96547795        2      -0.00021662      -0.00013719      -0.00652053
Ti      -1.51604478       9.62321318      11.28888075        0       0.00020084      -0.00016477      -0.00266821
Ti       0.00018866       8.74620809       8.69379035        0      -0.00019828      -0.00011391       0.00763879
O       -1.51505003       9.62243228       7.76958426        1      -0.00012780      -0.00046242      -0.00254313
O       -0.00014521       8.74503370      12.23159545        3       0.00029569      -0.00030757      -0.17749315
C        6.06000256       0.00084668       9.96910533        2      -0.00006448       0.00009561      -0.00683965
Ti       6.05991548       1.75049050      11.29256594        0       0.00021295       0.00007064      -0.00285796
Ti       7.57521141       0.87367473       8.69308474        0      -0.00001690       0.00012509       0.00847579
O        6.06006430       1.75032842       7.77250207        1       0.00018139      -0.00021071      -0.00304279
O        7.57610191       0.87421020      12.23159545        3       0.00005364       0.00000793      -0.19495533
C        4.54501994       2.62416360       9.97216081        2      -0.00022623      -0.00032849      -0.00767366
Ti       4.54543248       4.37302360      11.29195014        0       0.00041545      -0.00025233      -0.00296485
Ti       6.05996637       3.49858939       8.69573707        0      -0.00026728       0.00008108       0.00964735
O        4.54580811       4.37312221       7.77254414        1       0.00011128       0.00008179      -0.00285049
O        6.06027123       3.49891914      12.23159545        3       0.00010722       0.00008615      -0.19513915
C        3.03060442       5.24766991       9.96963290        2       0.00039127       0.00008317      -0.00751562
Ti       3.03193199       6.99638680      11.29114529        0      -0.00061691       0.00007043      -0.00340798
Ti       4.54441991       6.12348926       8.69310924        0      -0.00017299      -0.00020231       0.00901034
O        3.03111505       6.99707106       7.77016641        1      -0.00021588       0.00042925      -0.00237837
O        4.54522780       6.12338135      12.23159545        3       0.00030934       0.00041258      -0.20004361
C        1.51501541       7.87193646       9.96480551        2       0.00012261       0.00020779      -0.00661000
Ti       1.51527051       9.62345573      11.29080166        0      -0.00001255      -0.00043621      -0.00286235
Ti       3.02889711       8.74637409       8.69336108        0       0.00064002       0.00002536       0.00751695
O        1.51520748       9.62253957       7.76997920        1       0.00007523      -0.00032562      -0.00260787
O        3.03027145       8.74731442      12.23159545        3       0.00047408       0.00016055      -0.16726723
C        9.08917864       0.00009781       9.97005530        2       0.00032427      -0.00001471      -0.00603085
Ti       9.09099581       1.75011972      11.28508236        0      -0.00002758      -0.00007099      -0.00077980
Ti      10.60507680       0.87429553       8.69210244        0       0.00047924       0.00029729       0.00703021
O        9.08954426       1.74966367       7.77056081        1       0.00030488      -0.00036430      -0.00290895
O       10.60736524       0.87392369      12.23159545        3       0.00028724      -0.00033788      -0.14983313
C        7.57516058       2.62430501       9.97177626        2       0.00060961      -0.00014430      -0.00702833
Ti       7.57531187       4.37354528      11.29127163        0      -0.00011227      -0.00029663      -0.00228750
Ti       9.09089454       3.49877068       8.69262406        0       0.00019108       0.00007487       0.00851381
O        7.57430548       4.37312367       7.77251035        1       0.00011177       0.00002949      -0.00308349
O        9.09116092       3.49827112      12.23159545        3      -0.00005333      -0.00000874      -0.19930258
C        6.06020084       5.24809805       9.97170790        2       0.00043974       0.00070861      -0.00733803
Ti       6.06075321       6.99822429      11.28488578        0      -0.00028544      -0.00021480      -0.00100965
Ti       7.57550036       6.12353046       8.69294607        0      -0.00007141      -0.00001153       0.00832453
O        6.06001201       6.99702554       7.77071902        1       0.00003883       0.00039322      -0.00263956
O        7.57514137       6.12341602      12.23159545        3      -0.00006754       0.00018765      -0.20286152
C        4.54482006       7.87140887       9.97056045        2       0.00036862       0.00060969      -0.00633190
Ti       4.54684060       9.62267647      11.29123503        0      -0.00045868      -0.00026314      -0.00168943
Ti       6.05982855       8.74736763       8.69230826        0       0.00024899       0.00002039       0.00677372
O        4.54487449       9.62133878       7.77152693        1       0.00010615       0.00007046      -0.00266325
O        6.06028506       8.74966004      12.23159545        3      -0.00015157       0.00013178      -0.15595572
C        0.04513023       0.06797048      15.45791124       10      -0.00367346      -0.00255399       0.13045536
C        1.25572267       0.76678225      15.45791124       10       0.00262845       0.00157763       0.06060778
C       -1.16616513       2.16545606      15.45791124       10      -0.00024649      -0.00105070       0.08058038
C        0.04519538       2.86470125      15.45791124       10      -0.00067623      -0.00135425       0.06336399
C       -2.37777098       4.26528783      15.45791124       10      -0.00082881       0.00058676       0.03747465
C       -1.16617774       4.96488387      15.45791124       10       0.00037080       0.00075476       0.06941860
C       -3.59079478       6.36656139      15.45791124       10      -0.00158770       0.00111860       0.03410701
C       -2.37895702       7.06589146      15.45791124       10      -0.00224908       0.00145536       0.06947550
C       -4.80366108       8.46634184      15.45791124       10      -0.00719109       0.00064134       0.07520460
C       -3.59243418       9.16559476      15.45791124       10       0.00216575       0.00300802       0.06439684
C        2.46736884       0.06791289      15.45791124       10      -0.00141630      -0.00121283       0.08409068
C        3.67874489       0.76624556      15.45791124       10      -0.00263611      -0.00136867       0.05107818
C        1.25628801       2.16539888      15.45791124       10      -0.00128592      -0.00109060       0.08593653
C        2.46675013       2.86524221      15.45791124       10      -0.00042301      -0.00168173       0.04645149
C        0.04511312       4.26455428      15.45791124       10      -0.00118841      -0.00086780       0.06626124
C        1.25642144       4.96482373      15.45791124       10      -0.00115947      -0.00008838       0.07542405
C       -1.16706549       6.36490208      15.45791124       10      -0.00392422       0.00061948       0.06940358
C        0.04517939       7.06479187      15.45791124       10      -0.00399333       0.00087011       0.10061859
C       -2.38001924       8.46528504      15.45791124       10      -0.00201958      -0.00044846       0.06722602
C       -1.16780074       9.16413452      15.45791124       10      -0.00205646       0.00019574       0.07915529
C        4.89175693       0.06703023      15.45791124       10      -0.00108660       0.00024886       0.04685737
C        6.10463018       0.76619447      15.45791124       10       0.00061703      -0.00031794       0.04083132
C        3.67901094       2.16581746      15.45791124       10       0.00032976      -0.00193881       0.04425638
C        4.89111650       2.86551410      15.45791124       10       0.00206136      -0.00134997       0.04593879
C        2.46781416       4.26513179      15.45791124       10      -0.00049037      -0.00063636       0.04467359
C        3.67972575       4.96607533      15.45791124       10       0.00016730       0.00085552       0.03985894
C        1.25735091       6.36482298      15.45791124       10      -0.00248077       0.00175374       0.07286036
C        2.46916419       7.06561809      15.45791124       10      -0.00034150       0.00232870       0.07643094
C        0.04496422       8.46458891      15.45791124       10      -0.00057376       0.00036486       0.07518859
C        1.25756385       9.16410154      15.45791124       10       0.00130837      -0.00024242       0.08021912
C        7.31772666       0.06708197      15.45791124       10       0.00200266      -0.00036779       0.04131855
C        8.53087988       0.76628323      15.45791124       10       0.00175208       0.00007481       0.04887120
C        6.10448667       2.16604382      15.45791124       10       0.00343708      -0.00082382       0.02374466
C        7.31784650       2.86559636      15.45791124       10       0.00347517      -0.00092080       0.04872297
C        4.89209788       4.26613143      15.45791124       10       0.00102095       0.00041956       0.02399987
C        6.10470805       4.96703667      15.45791124       10       0.00130132       0.00091847       0.05212976
C        3.68093353       6.36627332      15.45791124       10       0.00040596       0.00198199       0.03558908
C        4.89293825       7.06745934      15.45791124       10       0.00145842       0.00166285       0.04450538
C        2.46999006       8.46515168      15.45791124       10       0.00291814       0.00168402       0.06848154
C        3.68248760       9.16544884      15.45791124       10       0.00145800       0.00160113       0.06703137
C        9.74265447       0.06792789      15.45791124       10      -0.00228031      -0.00290520       0.07912679
C       10.95423288       0.76680393      15.45791124       10       0.00736153      -0.00091949       0.05515164
C        8.53038717       2.16596661      15.45791124       10       0.00176273      -0.00189928       0.03998476
C        9.74305652       2.86533627      15.45791124       10       0.00122894      -0.00111582       0.03977570
C        7.31747291       4.26631363      15.45791124       10      -0.00038203      -0.00100426       0.02420714
C        8.53019171       4.96636081      15.45791124       10       0.00059372      -0.00043279       0.04072601
C        6.10496398       6.36709503      15.45791124       10       0.00088737       0.00151867       0.03720243
C        7.31712119       7.06759961      15.45791124       10       0.00012447       0.00097987       0.04043623
C        4.89398582       8.46631818      15.45791124       10      -0.00242878      -0.00095311       0.07568026
C        6.10502771       9.16621826      15.45791124       10       0.00399189       0.00262178       0.05080147
