130
Lattice="12.12 0.0 0.0 -6.06 10.496227893867395 0.0 0.0 0.0 40.0" Properties=species:S:1:pos:R:3:tags:I:1:forces:R:3 energy=-1201.9921254110586 stress="0.002898362451355298 -4.997068933843376e-08 -7.164439153463301e-07 -4.997068933843376e-08 0.0028985291966546816 -1.0904825912681713e-06 -7.164439153463301e-07 -1.0904825912681713e-06 0.0023993895978391046" pbc="T T F"
C       -0.00011116      -0.00013459      10.00551338        2      -0.00003850       0.00000154      -0.00298941
Ti      -0.00023345       1.74934563      11.29918186        0      -0.00036697      -0.00098379       0.00347817
Ti       1.51494924       0.87462127       8.71615496        0      -0.00025757      -0.00038733      -0.00122714
O        0.00000702       1.74917476       7.77716533        1      -0.00013017      -0.00014257       0.00084028
O        1.51477726       0.87442097      12.23008024        3       0.00026600       0.00038876       0.09100262
C       -1.51509539       2.62392540      10.00497231        2       0.00000596       0.00020669      -0.00248820
Ti      -1.51526733       4.37304108      11.29776694        0      -0.00050662      -0.00023656       0.00306614
Ti      -0.00001129       3.49862457       8.71553521        0      -0.00030714      -0.00039116      -0.00051699
O       -1.51491902       4.37332407       7.77672303        1      -0.00017259      -0.00018765       0.00077290
O       -0.00026277       3.49881474      12.23008024        3       0.00021818       0.00051475       0.09571827
C       -3.02999521       5.24804380      10.00463992        2      -0.00002402      -0.00022280      -0.00221806
Ti      -3.03032345       6.99719966      11.29786917        0      -0.00061677       0.00042535       0.00329943
Ti      -1.51496102       6.12277633       8.71549321        0      -0.00038903      -0.00019165      -0.00056765
O       -3.02998389       6.99754301       7.77672886        1      -0.00016236      -0.00018891       0.00084524
O       -1.51512550       6.12252098      12.23008024        3       0.00034089      -0.00016207       0.08864501
C       -4.54505948       7.87206002      10.00497013        2      -0.00003607      -0.00039707      -0.00269918
Ti      -4.54507511       9.62118766      11.29906457        0      -0.00045138      -0.00039474       0.00366316
Ti      -3.03005848       8.74683413       8.71556562        0      -0.00026235      -0.00013605      -0.00077940
O       -4.54508193       9.62157100       7.77714662        1      -0.00013124      -0.00012909       0.00096914
O       -3.02993663       8.74635051      12.23008024        3       0.00030004      -0.00049211       0.09484050
C        3.02994572      -0.00016939      10.00516370        2       0.00022089       0.00014762      -0.00239438
Ti       3.03013361       1.74935798      11.29843930        0      -0.00085524      -0.00129859       0.00282143
Ti       4.54497161       0.87461260       8.71535025        0      -0.00017185      -0.00027535      -0.00069921
O        3.02983200       1.74919679       7.77699948        1      -0.00004868      -0.00011307       0.00067493
O        4.54495091       0.87443421      12.23008024        3      -0.00012186       0.00014126       0.09377907
C        1.51490420       2.62391072      10.00511206        2       0.00021506       0.00031092      -0.00205203
Ti       1.51512125       4.37297707      11.29789896        0      -0.00087592      -0.00044286       0.00232192
Ti       3.02995973       3.49867877       8.71524618        0      -0.00014998      -0.00032642      -0.00033861
O        1.51493749       4.37330029       7.77680585        1      -0.00004848      -0.00016930       0.00048420
O        3.02980582       3.49843671      12.23008024        3      -0.00004338       0.00023892       0.09427655
C       -0.00003046       5.24802744      10.00483648        2       0.00018800       0.00004340      -0.00173189
Ti      -0.00005384       6.99718187      11.29939005        0      -0.00081148       0.00027349       0.00239514
Ti       1.51493375       6.12275581       8.71560872        0      -0.00006057      -0.00011794      -0.00040824
O        0.00001272       6.99747423       7.77686643        1      -0.00010267      -0.00018305       0.00027488
O        1.51497117       6.12256031      12.23008024        3       0.00013357      -0.00060618       0.09169334
C       -1.51498885       7.87204573      10.00489815        2       0.00034920      -0.00026927      -0.00212350
Ti      -1.51517301       9.62164497      11.29800552        0      -0.00094590      -0.00041760       0.00316957
Ti      -0.00003043       8.74674412       8.71572482        0      -0.00014981       0.00001461      -0.00071892
O       -1.51506794       9.62148629       7.77685732        1      -0.00006369      -0.00005500       0.00073904
O       -0.00006504       8.74640667      12.23008024        3      -0.00002050      -0.00060647       0.09116825
C        6.05993685      -0.00008116      10.00489699        2      -0.00022267      -0.00007965      -0.00212102
Ti       6.05991973       1.74947769      11.29832805        0       0.00035457      -0.00077005       0.00287151
Ti       7.57496141       0.87459688       8.71527005        0       0.00013266      -0.00010072      -0.00082323
O        6.05991909       1.74925212       7.77678696        1      -0.00005892      -0.00016018       0.00073339
O        7.57476709       0.87431837      12.23008024        3      -0.00049812      -0.00014890       0.09392762
C        4.54504967       2.62400527      10.00497570        2      -0.00018619       0.00016483      -0.00171877
Ti       4.54493590       4.37329749      11.29827913        0       0.00034888       0.00011427       0.00249683
Ti       6.05999724       3.49872533       8.71542662        0       0.00010065      -0.00018787      -0.00083176
O        4.54489778       4.37333394       7.77673000        1      -0.00006990      -0.00013000       0.00053578
O        6.06045183       3.49940798      12.23008024        3      -0.00025646      -0.00010389       0.11333298
C        3.02994389       5.24797786      10.00474260        2      -0.00009629      -0.00026817      -0.00151462
Ti       3.03024038       6.99718049      11.29806039        0       0.00041479       0.00085843       0.00264926
Ti       4.54495338       6.12276740       8.71516558        0       0.00015930       0.00010405      -0.00051506
O        3.02993765       6.99747970       7.77676770        1      -0.00005835      -0.00015440       0.00055320
O        4.54474400       6.12269068      12.23008024        3      -0.00055165      -0.00070191       0.09475975
C        1.51488881       7.87202951      10.00489394        2      -0.00024971      -0.00052627      -0.00188492
Ti       1.51500395       9.62165420      11.29809328        0       0.00037254       0.00032075       0.00312868
Ti       3.02997904       8.74680324       8.71555238        0       0.00007459       0.00008397      -0.00082142
O        1.51497772       9.62145321       7.77681220        1      -0.00007694      -0.00006002       0.00076214
O        3.02964343       8.74641164      12.23008024        3      -0.00062427      -0.00066666       0.09678915
C        9.08987452      -0.00015623      10.00502089        2      -0.00030963      -0.00022855      -0.00261918
Ti       9.08959811       1.74941133      11.29813332        0       0.00067560      -0.00054027       0.00377382
Ti      10.60498896       0.87461740       8.71596546        0      -0.00008103      -0.00021753      -0.00134669
O        9.09009383       1.74918534       7.77683444        1      -0.00011895      -0.00010641       0.00104669
O       10.60449047       0.87455137      12.23008024        3      -0.00005053       0.00018470       0.09140406
C        7.57489214       2.62400436      10.00484881        2      -0.00040529      -0.00000676      -0.00231329
Ti       7.57505082       4.37338736      11.29842416        0       0.00057609       0.00027817       0.00309139
Ti       9.09000852       3.49868820       8.71513884        0      -0.00005464      -0.00025849      -0.00073252
O        7.57499251       4.37336441       7.77666963        1      -0.00008628      -0.00013241       0.00080203
O        9.09004924       3.49847402      12.23008024        3      -0.00024265      -0.00003358       0.09404530
C        6.05996449       5.24802999      10.00474503        2      -0.00041443      -0.00045128      -0.00193801
Ti       6.05990638       6.99701401      11.29808709        0       0.00056205       0.00112059       0.00329786
Ti       7.57499089       6.12278221       8.71514443        0      -0.00004848       0.00003572      -0.00075590
O        6.05995521       6.99762425       7.77676567        1      -0.00009360      -0.00018773       0.00097472
O        7.57496525       6.12276557      12.23008024        3      -0.00024546      -0.00046754       0.09549233
C        4.54490971       7.87206784      10.00494120        2      -0.00038914      -0.00055995      -0.00230391
Ti       4.54479500       9.62129929      11.29885848        0       0.00067223       0.00012539       0.00386285
Ti       6.05996386       8.74683554       8.71585513        0      -0.00001978      -0.00000783      -0.00120044
O        4.54502006       9.62152693       7.77707532        1      -0.00010884      -0.00010379       0.00100019
O        6.05973553       8.74645979      12.23008024        3      -0.00003757      -0.00050655       0.08991961
C        0.04515979       0.06781036      16.59323813       10      -0.00563185      -0.00374190      -0.01127755
C        1.25711588       0.76752040      16.59323813       10       0.00672394       0.00233456      -0.03709886
C       -1.16695817       2.16723325      16.59323813       10       0.00132427      -0.00807977      -0.02154581
C        0.04504095       2.86690516      16.59323813       10       0.00067421       0.00217238      -0.02997964
C       -2.37890658       4.26637864      16.59323813       10       0.00205291      -0.00411537      -0.03342152
C       -1.16672272       4.96615938      16.59323813       10       0.00071680       0.00182450      -0.02829299
C       -3.59077243       6.36543293      16.59323813       10       0.00157395      -0.00605944      -0.03590081
C       -2.37852089       7.06515001      16.59323813       10      -0.00195486       0.00497819      -0.02770633
C       -4.80277092       8.46468438      16.59323813       10      -0.00439858      -0.00297974      -0.02258299
C       -3.59080913       9.16434195      16.59323813       10       0.00610210      -0.00071757      -0.02901202
C        2.46918206       0.06758397      16.59323813       10      -0.00234305       0.00368788      -0.02061657
C        3.68125223       0.76738633      16.59323813       10      -0.00188456      -0.00363317      -0.03514969
C        1.25698679       2.16713918      16.59323813       10      -0.00104420      -0.00379170      -0.02080208
C        2.46899206       2.86687702      16.59323813       10      -0.00032522       0.00188809      -0.03656903
C        0.04511871       4.26630666      16.59323813       10      -0.00111834      -0.00138379      -0.03084926
C        1.25699771       4.96613134      16.59323813       10       0.00038229       0.00128795      -0.02791724
C       -1.16660887       6.36550829      16.59323813       10      -0.00618851      -0.00305072      -0.02852560
C        0.04533639       7.06523368      16.59323813       10      -0.00207559       0.00127673      -0.02051107
C       -2.37879932       8.46461600      16.59323813       10      -0.00238522       0.00140013      -0.02952745
C       -1.16682553       9.16436583      16.59323813       10      -0.00024764      -0.00849081      -0.02683685
C        4.89317688       0.06760356      16.59323813       10      -0.00000472       0.00901637      -0.03267306
C        6.10516371       0.76719287      16.59323813       10      -0.00323146      -0.00379251      -0.02954131
C        3.68087595       2.16694156      16.59323813       10       0.00233467      -0.00009399      -0.03615790
C        4.89280865       2.86668610      16.59323813       10       0.00001581      -0.00150586      -0.02565375
C        2.46903299       4.26629636      16.59323813       10       0.00245653       0.00217796      -0.03134162
C        3.68085645       4.96620682      16.59323813       10      -0.00215531      -0.00171948      -0.02976903
C        1.25725397       6.36545697      16.59323813       10       0.00024867       0.00203390      -0.02827254
C        2.46910557       7.06530496      16.59323813       10      -0.00192003       0.00044403      -0.02831943
C        0.04511918       8.46467090      16.59323813       10       0.00347891       0.00443396      -0.02915537
C        1.25709927       9.16442368      16.59323813       10       0.00033248      -0.00849660      -0.02798847
C        7.31711691       0.06766083      16.59323813       10       0.00053247       0.00905943      -0.03347199
C        8.52899586       0.76741178      16.59323813       10       0.00271631      -0.00092560      -0.03213416
C        6.10485580       2.16684223      16.59323813       10       0.00231489      -0.00084793      -0.03965212
C        7.31690477       2.86659039      16.59323813       10       0.00635923       0.00349984      -0.02629810
C        4.89290138       4.26628766      16.59323813       10      -0.00012496      -0.00088042      -0.04110208
C        6.10501209       4.96602287      16.59323813       10       0.00130841       0.00181170      -0.02468878
C        3.68118675       6.36551008      16.59323813       10       0.00078935      -0.00133835      -0.03539970
C        4.89303543       7.06521062      16.59323813       10       0.00142497       0.00421500      -0.03287614
C        2.46909219       8.46469995      16.59323813       10       0.00221028       0.00422323      -0.02962405
C        3.68096116       9.16446517      16.59323813       10       0.00272911      -0.00325581      -0.02964233
C        9.74117371       0.06771101      16.59323813       10      -0.00570693       0.00113701      -0.02401108
C       10.95301071       0.76758648      16.59323813       10       0.00479779       0.00347960      -0.03558117
C        8.52898658       2.16702886      16.59323813       10       0.00210171      -0.00469672      -0.03927475
C        9.74100337       2.86686446      16.59323813       10      -0.00139257       0.00644027      -0.03763579
C        7.31710962       4.26623345      16.59323813       10      -0.00058999      -0.00147927      -0.04025253
C        8.52930879       4.96601617      16.59323813       10      -0.00187816       0.00442457      -0.03086669
C        6.10513214       6.36552700      16.59323813       10      -0.00039264      -0.00165313      -0.04239395
C        7.31731085       7.06502933      16.59323813       10      -0.00106323       0.00847565      -0.03611724
C        4.89313008       8.46480203      16.59323813       10      -0.00639359      -0.00181864      -0.02493288
C        6.10509406       9.16435816      16.59323813       10       0.00604595       0.00411920      -0.03584543
