130
Lattice="12.12 0.0 0.0 -6.06 10.496227893867395 0.0 0.0 0.0 40.0" Properties=species:S:1:pos:R:3:tags:I:1:forces:R:3 energy=-1200.5420498827657 stress="0.002785737121227585 2.763920457273819e-08 5.047265220697021e-07 2.763920457273819e-08 0.002785825276907349 7.174020628901027e-07 5.047265220697021e-07 7.174020628901027e-07 0.002617300944912441" pbc="T T F"
C        0.00004080       0.00003963       9.99970460        2       0.00002497       0.00026258       0.00588860
Ti       0.00005305       1.74885241      11.31367112        0       0.00018946       0.00052588       0.00405964
Ti       1.51514590       0.87477725       8.69761100        0       0.00002775       0.00003568       0.00855426
O        0.00004033       1.74918910       7.77349813        1      -0.00001202      -0.00008637       0.00782088
O        1.51568323       0.87519724      12.23159545        3       0.00017753       0.00023588      -0.03811949
C       -1.51468053       2.62352174       9.99834875        2      -0.00050385       0.00054205       0.00581929
Ti      -1.51495022       4.37308993      11.31628147        0      -0.00025352       0.00012023       0.00510875
Ti      -0.00001985       3.49862809       8.69775542        0       0.00006525      -0.00004403       0.00873337
O       -1.51465551       4.37345024       7.77347044        1       0.00064835       0.00031159       0.00757425
O       -0.00035206       3.49877235      12.23159545        3      -0.00004957      -0.00002362      -0.04069463
C       -3.02963663       5.24825052       9.99721316        2      -0.00081164      -0.00035427       0.00557937
Ti      -3.03031585       6.99755987      11.31650722        0      -0.00047215      -0.00040298       0.00508336
Ti      -1.51519846       6.12268916       8.69801356        0       0.00006704       0.00012510       0.00916752
O       -3.02977163       6.99777108       7.77343395        1       0.00064614       0.00051946       0.00775975
O       -1.51619549       6.12238715      12.23159545        3      -0.00004994      -0.00002041      -0.04707158
C       -4.54534092       7.87283030       9.99813922        2       0.00000943      -0.00077542       0.00567183
Ti      -4.54551582       9.62197838      11.31441359        0       0.00029635       0.00027667       0.00369922
Ti      -3.03012469       8.74689706       8.69780688        0      -0.00005924       0.00007280       0.00904333
O       -4.54515168       9.62172248       7.77352869        1      -0.00008790       0.00015666       0.00785201
O       -3.03030552       8.74628726      12.23159545        3      -0.00025985       0.00024126      -0.03989680
C        3.02929660       0.00022277       9.99852397        2       0.00068646       0.00050019       0.00599762
Ti       3.02959372       1.74932638      11.31627538        0       0.00012307       0.00038915       0.00474638
Ti       4.54511445       0.87492814       8.69764187        0       0.00010399       0.00007621       0.00772682
O        3.02959103       1.74915073       7.77329933        1      -0.00038098      -0.00028382       0.00703619
O        4.54675307       0.87747833      12.23159545        3      -0.00018898       0.00012768      -0.03340704
C        1.51480582       2.62344633       9.99856602        2       0.00059682       0.00073518       0.00603504
Ti       1.51473008       4.37301025      11.31586459        0       0.00038276       0.00025735       0.00567330
Ti       3.03029197       3.49874740       8.69765156        0       0.00015198       0.00016310       0.00742185
O        1.51472009       4.37345965       7.77352498        1      -0.00057585       0.00034219       0.00778226
O        3.03345801       3.49936723      12.23159545        3       0.00011191       0.00007556      -0.03389669
C       -0.00003645       5.24735776       9.99861134        2       0.00033547       0.00030612       0.00670812
Ti       0.00009620       6.99766956      11.31428901        0       0.00045309       0.00036040       0.00561964
Ti       1.51517919       6.12268774       8.69814723        0      -0.00005297       0.00009292       0.00910521
O        0.00004154       6.99752421       7.77377489        1       0.00005073       0.00022539       0.00874089
O        1.51623841       6.12268496      12.23159545        3       0.00067004      -0.00030355      -0.05128353
C       -1.51570277       7.87254976       9.99862234        2       0.00037873       0.00001139       0.00654906
Ti      -1.51553022       9.62157800      11.31571420        0       0.00018197       0.00054678       0.00517703
Ti      -0.00001166       8.74706995       8.69815464        0      -0.00000129       0.00000152       0.00938943
O       -1.51508115       9.62128796       7.77350083        1       0.00005585      -0.00052178       0.00795630
O        0.00025772       8.74806970      12.23159545        3       0.00008730       0.00058152      -0.05359980
C        6.05988052      -0.00012340       9.99760871        2       0.00009788       0.00111361       0.00590085
Ti       6.05996401       1.74929649      11.31570377        0       0.00008969       0.00030739       0.00330496
Ti       7.57491223       0.87495816       8.69767418        0      -0.00007146       0.00009561       0.00746327
O        6.05995078       1.74903574       7.77290015        1      -0.00000706      -0.00084032       0.00552027
O        7.57366802       0.87810850      12.23159545        3       0.00017386       0.00005763      -0.03405266
C        4.54432960       2.62360479       9.99667094        2       0.00061382       0.00056006       0.00505973
Ti       4.54505986       4.37342148      11.31522253        0       0.00009484      -0.00003182       0.00282479
Ti       6.06001914       3.49875755       8.69765698        0      -0.00002406       0.00008004       0.00586499
O        4.54469388       4.37351717       7.77285985        1      -0.00060576       0.00033560       0.00514503
O        6.06035492       3.49928813      12.23159545        3      -0.00013310      -0.00007944      -0.05795639
C        3.02969638       5.24808246       9.99745886        2       0.00090831      -0.00031229       0.00589568
Ti       3.03037454       6.99756974      11.31627720        0       0.00097187      -0.00021880       0.00562014
Ti       4.54518032       6.12258458       8.69764048        0       0.00008135      -0.00004367       0.00722173
O        3.02973533       6.99771996       7.77352786        1      -0.00063102       0.00060187       0.00781169
O        4.54748884       6.11977948      12.23159545        3       0.00038595      -0.00015782      -0.03633920
C        1.51564732       7.87258202       9.99867749        2       0.00023881      -0.00019269       0.00680426
Ti       1.51535093       9.62177528      11.31596004        0       0.00039476       0.00069810       0.00492004
Ti       3.03011109       8.74691308       8.69790898        0       0.00008313       0.00003793       0.00920646
O        1.51504871       9.62123769       7.77354474        1       0.00011486      -0.00057653       0.00784999
O        3.03012783       8.74663131      12.23159545        3       0.00041219       0.00028653      -0.04220836
C        9.09076953       0.00024172       9.99834342        2      -0.00043816       0.00046154       0.00592199
Ti       9.09050381       1.74945379      11.31609629        0       0.00048522       0.00028585       0.00396702
Ti      10.60482047       0.87480830       8.69759133        0      -0.00003682       0.00007973       0.00859848
O        9.09040009       1.74913446       7.77319128        1       0.00044666      -0.00027638       0.00674901
O       10.60425946       0.87543552      12.23159545        3       0.00002579       0.00028841      -0.03834307
C        7.57553095       2.62357541       9.99644770        2      -0.00064855       0.00065396       0.00474584
Ti       7.57477056       4.37336094      11.31468361        0      -0.00039640      -0.00013996       0.00211436
Ti       9.08969971       3.49875610       8.69763997        0      -0.00022242       0.00023260       0.00728553
O        7.57522657       4.37352889       7.77277109        1       0.00050699       0.00028838       0.00488479
O        9.08605227       3.49946597      12.23159545        3       0.00022389       0.00003450      -0.03604735
C        6.05989833       5.24875565       9.99629721        2       0.00005363      -0.00082122       0.00465892
Ti       6.06014237       6.99798934      11.31582026        0       0.00019500       0.00022849       0.00363920
Ti       7.57483915       6.12257649       8.69760027        0       0.00001965      -0.00018420       0.00734545
O        6.05997367       6.99794291       7.77308516        1       0.00003222       0.00061979       0.00643858
O        7.57308461       6.11931119      12.23159545        3      -0.00009588       0.00011490      -0.03847446
C        4.54548528       7.87283391       9.99817406        2       0.00005203      -0.00079677       0.00583932
Ti       4.54561903       9.62202409      11.31496508        0       0.00000870       0.00010258       0.00433561
Ti       6.06000919       8.74660960       8.69756296        0       0.00002239      -0.00018220       0.00866706
O        4.54516890       9.62168475       7.77356504        1       0.00009921       0.00022351       0.00805501
O        6.06015734       8.74568347      12.23159545        3       0.00011161       0.00007780      -0.03738173
C        0.04457102       0.06729443      16.16843756       10       0.00678750       0.00134970       0.01735897
C        1.25718834       0.76701603      16.16843756       10       0.00313355       0.00443555      -0.00701589
C       -1.16777768       2.16669380      16.16843756       10       0.00607327      -0.00055883       0.01001308
C        0.04477967       2.86686289      16.16843756       10       0.00014911       0.00248115       0.00489295
C       -2.37987448       4.26589372      16.16843756       10       0.00413760      -0.00374736       0.01059029
C       -1.16722355       4.96577903      16.16843756       10       0.00047263       0.00238777       0.02642470
C       -3.59131661       6.36474049      16.16843756       10       0.00327927      -0.00289927       0.01165696
C       -2.37852772       7.06453574      16.16843756       10      -0.00169314      -0.00122021       0.02860760
C       -4.80289463       8.46416527      16.16843756       10       0.00152987      -0.00351228       0.00919149
C       -3.59017647       9.16363719      16.16843756       10      -0.00062111      -0.00191896       0.00697419
C        2.46899851       0.06731678      16.16843756       10       0.00388153       0.00599291       0.00842643
C        3.68177470       0.76751839      16.16843756       10       0.00353017       0.00318689       0.00144911
C        1.25710404       2.16637486      16.16843756       10       0.00127715       0.00386887       0.00957489
C        2.46990399       2.86689232      16.16843756       10       0.00124525       0.00070916      -0.00079047
C        0.04502454       4.26575991      16.16843756       10      -0.00004787       0.00235958      -0.00304227
C        1.25737953       4.96591293      16.16843756       10      -0.00074959       0.00067373       0.02843672
C       -1.16703296       6.36474873      16.16843756       10      -0.00203279       0.00461125      -0.01087041
C        0.04535820       7.06483811      16.16843756       10      -0.00311305      -0.00095897       0.04096119
C       -2.37857144       8.46421171      16.16843756       10      -0.00092282       0.00043724      -0.00456325
C       -1.16631178       9.16415058      16.16843756       10      -0.00091038      -0.00311269       0.03143461
C        4.89312566       0.06796651      16.16843756       10       0.00101202       0.00468083       0.00594675
C        6.10474988       0.76787411      16.16843756       10       0.00252021       0.00054681       0.00758486
C        3.68155423       2.16702437      16.16843756       10       0.00008061       0.00079214       0.01638369
C        4.89392064       2.86744062      16.16843756       10       0.00241385      -0.00293373      -0.03019270
C        2.46975038       4.26575182      16.16843756       10      -0.00020634       0.00041014       0.00758598
C        3.68160674       4.96575925      16.16843756       10      -0.00001621      -0.00033711       0.00059405
C        1.25759281       6.36500103      16.16843756       10      -0.00263069       0.00269124      -0.01475042
C        2.46910305       7.06483998      16.16843756       10      -0.00035200      -0.00079595       0.03311849
C        0.04537220       8.46457993      16.16843756       10      -0.00286362      -0.00131294      -0.01790285
C        1.25679814       9.16444955      16.16843756       10      -0.00146861      -0.00516676       0.03414415
C        7.31643891       0.06836482      16.16843756       10       0.00068641       0.00259401       0.00658252
C        8.52758627       0.76799781      16.16843756       10       0.00079957      -0.00102131       0.00060838
C        6.10469324       2.16766935      16.16843756       10       0.00276563       0.00029981       0.00882101
C        7.31565452       2.86757625      16.16843756       10       0.00182113      -0.00519056      -0.03233712
C        4.89353166       4.26601782      16.16843756       10       0.00037500      -0.00080721       0.00794335
C        6.10508443       4.96509457      16.16843756       10      -0.00037231      -0.00263797      -0.03428973
C        3.68177332       6.36479582      16.16843756       10      -0.00158766      -0.00074743       0.00941758
C        4.89322870       7.06410489      16.16843756       10      -0.00170980      -0.00401830      -0.00301779
C        2.46908989       8.46459471      16.16843756       10      -0.00390567      -0.00331657      -0.00684846
C        3.68054063       9.16415854      16.16843756       10      -0.00408066      -0.00624130       0.00995930
C        9.74037138       0.06782425      16.16843756       10       0.00076548       0.00160240       0.00665917
C       10.95201919       0.76726965      16.16843756       10      -0.00151340       0.00326984      -0.00520373
C        8.52782808       2.16741831      16.16843756       10       0.00140972       0.00056895       0.01470220
C        9.73955954       2.86704823      16.16843756       10      -0.00362061       0.00222451      -0.00434371
C        7.31657581       4.26618519      16.16843756       10      -0.00096230      -0.00280425       0.00692830
C        8.52857383       4.96560083      16.16843756       10      -0.00442757       0.00319957      -0.00776094
C        6.10522880       6.36464555      16.16843756       10      -0.00049981      -0.00265722       0.01310666
C        7.31729038       7.06374737      16.16843756       10      -0.00641118       0.00019874      -0.00578205
C        4.89327112       8.46439280      16.16843756       10      -0.00318738      -0.00459625       0.00676782
C        6.10515172       9.16347244      16.16843756       10      -0.00663624      -0.00147386      -0.00410351
