132
Lattice="12.12 0.0 0.0 -6.06 10.496227893867395 0.0 0.0 0.0 40.0" Properties=species:S:1:pos:R:3:tags:I:1:forces:R:3 energy=-1209.6955991774057 stress="0.002804792529204225 5.890413345517723e-07 -7.517967129211158e-07 5.890413345517723e-07 0.0028061163328597944 -2.8903004715103947e-06 -7.517967129211158e-07 -2.8903004715103947e-06 0.0021285418938114258" pbc="T T F"
C        0.00127959      -0.00401260      10.00329171        2       0.00081679       0.00094601       0.00253264
Ti      -0.00330490       1.74761228      11.32055683        0       0.00113014      -0.00022030      -0.00153251
Ti       1.51560123       0.87150101       8.69492137        0      -0.00087326      -0.00026336      -0.00074412
O       -0.00082955       1.74730951       7.77649604        1      -0.00102667      -0.00061663       0.00275365
O        1.51370473       0.87167492      12.23159545        3      -0.00095644      -0.00006349       0.11378493
C       -1.51411765       2.62057405      10.01402375        2      -0.00110700       0.00005938       0.00426236
Ti      -1.51502727       4.36563810      11.31013904        0       0.00189296       0.00030646      -0.00210413
Ti       0.00388610       3.49761987       8.69459354        0      -0.00144136      -0.00125511      -0.00339635
O       -1.51410301       4.36810707       7.77489044        1      -0.00032031      -0.00194644       0.00215072
O        0.00529401       3.49780446      12.23159545        3      -0.00053916       0.00064686       0.05233495
C       -3.02884636       5.24400589      10.00546152        2       0.00181163      -0.00063890       0.00251434
Ti      -3.02864263       6.99204179      11.30904865        0      -0.00094079      -0.00295642      -0.00085895
Ti      -1.51264492       6.11938124       8.69265790        0      -0.00021257      -0.00164102      -0.00120453
O       -3.02849076       6.99282914       7.77187855        1      -0.00052855      -0.00085017       0.00323737
O       -1.51222709       6.11575563      12.23159545        3      -0.00053339      -0.00099734       0.11388265
C       -4.54333299       7.86812557      10.00283522        2      -0.00021683      -0.00169402       0.00241227
Ti      -4.54367061       9.61855831      11.30872433        0      -0.00064974      -0.00152880      -0.00051455
Ti      -3.02898637       8.74307483       8.69244281        0       0.00008682      -0.00050346      -0.00361801
O       -4.54352644       9.61908243       7.77154731        1      -0.00048945      -0.00093977       0.00379003
O       -3.02847177       8.74276107      12.23159545        3       0.00026994      -0.00125230       0.10060943
C        3.03123796      -0.00336108      10.00411144        2       0.00036886      -0.00084555       0.00271300
Ti       3.03048841       1.74606922      11.30892536        0       0.00061099       0.00044287      -0.00075877
Ti       4.54620785       0.87146625       8.69210825        0       0.00002249      -0.00074432      -0.00335245
O        3.03051052       1.74531813       7.77141001        1       0.00053046       0.00057718       0.00337837
O        4.54649670       0.87167384      12.23159545        3       0.00112161      -0.00075754       0.06624128
C        1.51698848       2.62128740      10.00362071        2      -0.00112196      -0.00179658       0.00236256
Ti       1.51804976       4.37158790      11.30877236        0       0.00133948      -0.00009748       0.00010649
Ti       3.03058109       3.49430449       8.69363835        0       0.00030214       0.00011943      -0.00178883
O        1.51552906       4.36949914       7.77068386        1      -0.00115840      -0.00157588       0.00209982
O        3.03195281       3.49566361      12.23159545        3      -0.00006258      -0.00014401       0.06968372
C        0.00428896       5.24632719      10.00082945        2      -0.00209168      -0.00137065       0.00307610
Ti      -0.00072340       6.99253656      11.30981034        0      -0.00061260      -0.00020178      -0.00074822
Ti       1.51582742       6.12019930       8.69225091        0       0.00139526       0.00035278      -0.00184727
O        0.00017713       6.99405777       7.77013203        1       0.00071437      -0.00118653       0.00290358
O        1.51487340       6.12124396      12.23159545        3       0.00037624      -0.00090423       0.09981982
C       -1.51430516       7.86824123      10.00275276        2      -0.00020005      -0.00024636       0.00116893
Ti      -1.51448461       9.61863213      11.30935250        0       0.00112616      -0.00088266       0.00070940
Ti       0.00077428       8.74339880       8.69266908        0      -0.00048587       0.00007073      -0.00298253
O       -1.51437889       9.61839890       7.77122337        1      -0.00067891       0.00015317       0.00049047
O        0.00080660       8.74183398      12.23159545        3      -0.00009430       0.00009019       0.10814111
C        6.06081639      -0.00363045      10.00271303        2      -0.00000464      -0.00064427       0.00074325
Ti       6.06203072       1.74658409      11.30703800        0       0.00003841       0.00087709      -0.00069657
Ti       7.57677093       0.87019101       8.69245229        0       0.00136288       0.00071433      -0.00233156
O        6.06235526       1.74629356       7.77185834        1       0.00079498      -0.00050703       0.00301692
O        7.57811524       0.87091387      12.23159545        3      -0.00040035       0.00017800       0.05789212
C        4.54667074       2.62066362      10.00266823        2       0.00138077      -0.00020399       0.00179180
Ti       4.54822966       4.36947023      11.31010665        0       0.00061188      -0.00144327      -0.00113914
Ti       6.06005201       3.49625067       8.69174722        0       0.00029270      -0.00065363      -0.00328038
O        4.54562008       4.36968256       7.77033284        1       0.00148292      -0.00187792       0.00149764
O        6.06186380       3.49634160      12.23159545        3       0.00169184       0.00078519       0.10113927
C        3.03149661       5.24531555      10.00269226        2       0.00048841      -0.00024180       0.00084113
Ti       3.03068387       6.99356714      11.30854036        0      -0.00037436      -0.00027311      -0.00274481
Ti       4.54516683       6.12018312       8.68930817        0      -0.00054583      -0.00014105      -0.00142075
O        3.03062897       6.99425910       7.76850502        1      -0.00067461       0.00179294       0.00346775
O        4.54609118       6.11960850      12.23159545        3       0.00000977      -0.00014309       0.05143791
C        1.51552725       7.86892800      10.00171854        2       0.00021423       0.00009579       0.00127696
Ti       1.51529112       9.61981049      11.31106608        0      -0.00062957       0.00006375      -0.00031886
Ti       3.03044489       8.74279168       8.69218646        0      -0.00017166      -0.00124686      -0.00237594
O        1.51578039       9.61866162       7.77063823        1       0.00049201       0.00077227       0.00263992
O        3.02898889       8.74185667      12.23159545        3       0.00101768       0.00023503       0.08978552
C        9.09069786      -0.00702541      10.00167513        2      -0.00013495       0.00264542       0.00468690
Ti       9.09349292       1.74464303      11.30572578        0      -0.00120373      -0.00227004      -0.00230895
Ti      10.60602385       0.86842065       8.69431357        0      -0.00034725       0.00106404      -0.00327248
O        9.09256360       1.74702106       7.77456612        1       0.00084417       0.00036541       0.00117171
O       10.60712134       0.86513079      12.23159545        3      -0.00140650      -0.00014095       0.04253178
C        7.57629430       2.62071817      10.00517569        2       0.00148696      -0.00169901       0.00307146
Ti       7.57593971       4.37013244      11.29777222        0      -0.00298852       0.00060229      -0.00264468
Ti       9.08997032       3.49596008       8.69482226        0       0.00154836      -0.00140884      -0.00376666
O        7.57728194       4.36932568       7.77128177        1       0.00122982      -0.00113717       0.00375152
O        9.08725312       3.49565982      12.23159545        3      -0.00225165       0.00040482       0.08724107
C        6.05801715       5.24676036      10.00009203        2       0.00033367      -0.00099716       0.00111739
Ti       6.06248097       6.99319270      11.30962892        0       0.00133628      -0.00048875      -0.00077245
Ti       7.57482399       6.11998385       8.69190725        0       0.00089044      -0.00024186      -0.00220121
O        6.06142254       6.99485689       7.77027075        1       0.00130497      -0.00059692       0.00230880
O        7.57537238       6.11887251      12.23159545        3       0.00030445      -0.00341033       0.06946186
C        4.54579706       7.86859746      10.00294557        2       0.00001657      -0.00022038       0.00166953
Ti       4.54518530       9.61513899      11.31059129        0       0.00033248      -0.00094661       0.00086891
Ti       6.06196622       8.74452304       8.69406070        0       0.00007985      -0.00026614      -0.00173412
O        4.54623104       9.61900799       7.77135749        1       0.00024095       0.00127470       0.00318952
O        6.06156905       8.74377153      12.23159545        3      -0.00106718       0.00012818       0.09875151
C        0.06741906       0.05884776      17.27934846       10       0.00137762       0.00118990      -0.01638081
C        1.27419952       0.76171589      17.28773669       10       0.00091850       0.00019401      -0.02052574
C       -1.12205605       2.14595191      17.25497779       10       0.00128850       0.00045705       0.52369056
C        0.06485308       2.85936862      17.26261653       10       0.00226518       0.00050078      -0.03120743
C       -2.36411985       4.29770685      17.25497224       10      -0.00059718       0.00269102       0.35747741
C       -1.15349063       4.96892680      17.26261397       10       0.00029739       0.00154565       0.00315869
C       -3.57713925       6.37451471      17.27934791       10      -0.00063341       0.00243896      -0.02499380
C       -2.36437138       7.06655040      17.28773649       10      -0.00141690       0.00272953      -0.01265902
C       -4.78833643       8.46231602      17.27745552       10       0.00065988       0.00225636      -0.02197034
C       -3.57666006       9.16158679      17.28874518       10      -0.00093901       0.00089054      -0.03017650
C        2.48584647       0.06246918      17.28977020       10       0.00023411       0.00065735      -0.00839472
C        3.69469705       0.76312768      17.28874509       10      -0.00015892       0.00187349      -0.03689390
C        1.27977158       2.15891504      17.27934867       10       0.00275868       0.00078209      -0.01714489
C        2.48476432       2.86266049      17.27028854       10       0.00190415       0.00257268      -0.03019655
C        0.06246066       4.26491825      17.23648865       10       0.00073819       0.00032083      -0.03261535
C        1.26946348       4.96201100      17.24815860       10       0.00051435       0.00020407      -0.02959478
C       -1.15247252       6.37280577      17.27934791       10      -0.00182393       0.00172132      -0.02295789
C        0.06008000       7.06414214      17.27028864       10      -0.00218694       0.00117624      -0.00922609
C       -2.36430356       8.46473638      17.28977041       10      -0.00116892       0.00253866      -0.01513563
C       -1.15330032       9.16139071      17.28874518       10      -0.00144850       0.00187349      -0.02354491
C        4.90445532       0.06215910      17.28977020       10      -0.00117076       0.00121344      -0.02375324
C        6.11562841       0.76185674      17.28773669       10      -0.00093175      -0.00136175      -0.01457043
C        3.69447737       2.16228329      17.27745539       10       0.00124706       0.00247055      -0.02381762
C        4.90384201       2.86323440      17.27028854       10       0.00048318       0.00219389       0.01136935
C        2.48259615       4.26183130      17.25640504       10       0.00138738       0.00222167      -0.02892384
C        3.69468537       4.96260330      17.25361718       10       0.00091904       0.00169533      -0.02501938
C        1.26953729       6.36341714      17.25640494       10      -0.00206518      -0.00060010      -0.03768185
C        2.48299352       7.06221212      17.25361707       10      -0.00080606      -0.00138560      -0.02431056
C        0.05836911       8.46182029      17.27745552       10      -0.00181199       0.00114820      -0.02598303
C        1.26990159       9.15992273      17.27028839       10      -0.00027449      -0.00124112      -0.01342448
C        7.32246883       0.05975877      17.27934846       10      -0.00074094      -0.00161310      -0.01856984
C        8.53817490       0.76269432      17.26261634       10      -0.00018502      -0.00272610      -0.00552311
C        6.10869146       2.15818021      17.27934867       10      -0.00185447      -0.00122551      -0.00778137
C        7.32531496       2.85841885      17.26261653       10      -0.00276969      -0.00134850       0.03600261
C        4.90615866       4.26129143      17.25640504       10       0.00042128       0.00215727       0.01064292
C        6.11929830       4.96248061      17.24815860       10       0.00029940       0.00130502      -0.01060413
C        3.69449778       6.36220284      17.25053918       10       0.00084591       0.00062943      -0.03353384
C        4.90673923       7.06226422      17.25361707       10       0.00182038       0.00052469      -0.03294540
C        2.48128971       8.46220959      17.25640477       10       0.00105492      -0.00097354      -0.02874858
C        3.69493018       9.16320567      17.24815819       10       0.00268243      -0.00069432      -0.03112764
C        9.75527198       0.06089422      17.23648860       10       0.00189388      -0.00012821      -0.03209395
C       10.97348790       0.76105880      17.26261634       10       0.00067530      -0.00001656      -0.03988598
C        8.51495103       2.14721406      17.25497779       10      -0.00271185      -0.00258953       0.33488178
C        9.75510092       2.86499615      17.01061853       10      -0.00157696       0.00018437      -1.71290196
C        7.32725349       4.26544865      17.23648865       10      -0.00082816      -0.00011724      -0.02972786
C        8.54457059       4.97110921      17.26261397       10      -0.00168329       0.00237312       0.02783221
C        6.11978909       6.36342189      17.25640494       10       0.00157308       0.00125716      -0.00270690
C        7.32920257       7.06476393      17.27028864       10       0.00014898       0.00284191      -0.00614067
C        4.90756211       8.46223421      17.25640477       10       0.00322670       0.00062122      -0.02179971
C        6.12017271       9.15982692      17.27028839       10       0.00112870       0.00169832      -0.03372474
O        9.83271910       2.82713279      15.45668387       11      -0.00697050      -0.00410953       0.00280201
H        9.06199194       3.28648895      15.06872367       12      -0.00121048       0.00053807      -0.00499143
