132
Lattice="12.12 0.0 0.0 -6.06 10.496227893867395 0.0 0.0 0.0 40.0" Properties=species:S:1:pos:R:3:tags:I:1:forces:R:3 energy=-1207.3753783074337 stress="0.002705315288078161 1.7780762535441527e-05 -1.288299947302056e-06 1.7780762535441527e-05 0.002670352098070823 -1.624814016080098e-06 -1.288299947302056e-06 -1.624814016080098e-06 0.0029794427023540665" pbc="T T F"
C       -0.12993026       0.15712123       9.93786431        2       0.00024320       0.00173359       0.00146928
Ti      -0.17539174       1.92213700      11.35828732        0      -0.00409548      -0.00081574       0.00230700
Ti       1.37665973       1.04794507       8.70403821        0       0.00235297       0.00025095       0.00041673
O       -0.14971204       1.92883831       7.79301075        1       0.00016260       0.00126067      -0.00173366
O        1.38715898       1.03651808      12.23159545        3      -0.00119089       0.00145231      -0.20039138
C       -1.66424483       2.78888168      10.04217421        2      -0.00119449       0.00010634       0.00461966
Ti      -1.62637155       4.56167247      11.26112402        0       0.00145956      -0.00032401      -0.00054699
Ti      -0.12212741       3.67416989       8.70434077        0      -0.00065527       0.00284945       0.00483366
O       -1.65122661       4.53107657       7.77769680        1       0.00054190      -0.00075112      -0.00109193
O       -0.11123784       3.69877828      12.23159545        3      -0.00093761       0.00190421      -0.47762648
C       -3.17542497       5.43737439       9.93243323        2      -0.00106181       0.00000527      -0.00209867
Ti      -3.16877978       7.17896643      11.28393804        0       0.00014685       0.00131485       0.00081915
Ti      -1.65333290       6.30087623       8.67758180        0      -0.00110555      -0.00446499       0.00197937
O       -3.16227997       7.17772108       7.75105963        1       0.00028261      -0.00014011       0.00007843
O       -1.65642902       6.31502554      12.23159545        3      -0.00235953      -0.00241238      -0.27528249
C       -4.67798788       8.04624217       9.94314545        2      -0.00246077      -0.00041535       0.00228922
Ti      -4.67828353       9.78763501      11.28400092        0      -0.00144529      -0.00359070       0.00359999
Ti      -3.15922589       8.92680244       8.68997131        0       0.00009879       0.00022957       0.00448274
O       -4.67585638       9.79964346       7.75732429        1      -0.00051140      -0.00072924      -0.00232334
O       -3.16621779       8.92515011      12.23159545        3       0.00030439      -0.00155516      -0.21628415
C        2.89525997       0.17696013       9.96104454        2      -0.00036582      -0.00205613       0.00241777
Ti       2.89098409       1.91750879      11.29560646        0       0.00194752       0.00197811       0.00125739
Ti       4.40556886       1.04938343       8.70016790        0      -0.00152634      -0.00143946      -0.00194890
O        2.89431553       1.92119819       7.76661880        1      -0.00185117      -0.00010262      -0.00319015
O        4.40322543       1.04653080      12.23159545        3       0.00094663      -0.00150748      -0.25023562
C        1.37757523       2.80021472       9.95812622        2      -0.00129335      -0.00156793      -0.00081522
Ti       1.40012212       4.55348140      11.27147794        0       0.00246334       0.00304057       0.00173947
Ti       2.89266305       3.66382254       8.69660458        0      -0.00241447       0.00129171      -0.00026171
O        1.37238821       4.54402978       7.76783183        1       0.00280649      -0.00030952       0.00062269
O        2.88895789       3.66468620      12.23159545        3       0.00101724       0.00169054      -0.20702267
C       -0.13132312       5.42845390       9.95814526        2       0.00071849      -0.00040369      -0.00055034
Ti      -0.14335631       7.18009736      11.29078984        0       0.00369407      -0.00072744      -0.00009223
Ti       1.37460753       6.30047658       8.69184385        0       0.00161512      -0.00171639      -0.00027528
O       -0.13487040       7.17357063       7.76047950        1       0.00033822       0.00078666       0.00045076
O        1.37301872       6.29477647      12.23159545        3       0.00194887       0.00070741      -0.25289091
C       -1.64871878       8.04871269       9.95162113        2      -0.00118026       0.00011983       0.00213966
Ti      -1.64711509       9.80226180      11.28948839        0      -0.00125538      -0.00131559       0.00034737
Ti      -0.13971407       8.92163406       8.70090943        0      -0.00086713      -0.00134531       0.00044048
O       -1.64516625       9.80231636       7.76373137        1       0.00002938      -0.00165469      -0.00134353
O       -0.14383830       8.92034101      12.23159545        3       0.00049070      -0.00156158      -0.21562169
C        5.93007239       0.17674292       9.96696035        2      -0.00027150      -0.00168534       0.00186635
Ti       5.93913597       1.93177865      11.28681522        0      -0.00176476      -0.00321708      -0.00100874
Ti       7.43389486       1.04563865       8.69274071        0       0.00102954       0.00114158       0.00040042
O        5.93008327       1.92215771       7.77216994        1       0.00108174      -0.00119876      -0.00125235
O        7.42577574       1.03944601      12.23159545        3      -0.00060985       0.00020582      -0.14381907
C        4.40624878       2.79866477       9.95694535        2       0.00100830       0.00203933      -0.00020172
Ti       4.39823271       4.54164233      11.28203123        0      -0.00185270      -0.00074456      -0.00121758
Ti       5.91666442       3.66600811       8.69814457        0      -0.00119921      -0.00417852       0.00006589
O        4.40890182       4.54004973       7.76308841        1       0.00073241      -0.00124372      -0.00083815
O        5.90708670       3.68170611      12.23159545        3      -0.00347442       0.00101056      -0.25090277
C        2.89620867       5.42286775       9.96341229        2       0.00143186      -0.00014227       0.00129201
Ti       2.88906501       7.15890911      11.29240640        0      -0.00466808       0.00123850      -0.00143820
Ti       4.40765506       6.29615490       8.66813984        0      -0.00342451       0.00170535       0.00097083
O        2.88921947       7.17272718       7.76044501        1       0.00183577      -0.00133012       0.00010366
O        4.40642548       6.29708745      12.23159545        3       0.00249671      -0.00158438      -0.29932754
C        1.37662341       8.04184813       9.95608161        2       0.00071150       0.00047343       0.00037979
Ti       1.38550007       9.79396802      11.28311661        0       0.00016690       0.00085994      -0.00118571
Ti       2.88880944       8.91450591       8.69514753        0       0.00211097      -0.00317284      -0.00064424
O        1.38426491       9.80102632       7.77231748        1      -0.00102314      -0.00096629      -0.00227868
O        2.89161609       8.89344889      12.23159545        3      -0.00040229       0.00319798      -0.28393106
C        8.96136675       0.16535941       9.98632691        2      -0.00058454      -0.00000955      -0.00032057
Ti       8.99904226       1.88885650      11.31431714        0       0.00057198       0.00426893       0.00250054
Ti      10.47740784       1.02744801       8.70949549        0      -0.00274471      -0.00172517       0.00309720
O        8.96078215       1.92324808       7.78948559        1      -0.00041609       0.00202768      -0.00011811
O       10.56117110       0.88227186      12.23159545        3       0.00007634       0.00068188      -0.89040054
C        7.44369676       2.80153557       9.97767904        2      -0.00007239       0.00169688       0.00121294
Ti       7.36471831       4.59596878      11.23908106        0       0.00399083      -0.00258433      -0.00031660
Ti       8.94012792       3.68159486       8.69322563        0       0.00017413       0.00306614       0.00033273
O        7.43757926       4.53846903       7.76423191        1      -0.00265111       0.00146773      -0.00068231
O        8.86530816       3.84807398      12.23159545        3       0.00345120       0.00030344      -1.17528680
C        5.90633998       5.43373683       9.96034723        2      -0.00154534      -0.00084672       0.00018468
Ti       5.93125510       7.17479091      11.27836458        0      -0.00029626       0.00319991       0.00123516
Ti       7.44729287       6.30790528       8.67729058        0       0.00242608       0.00242899       0.00103358
O        5.92060517       7.16847527       7.75112220        1       0.00386935       0.00091267       0.00063816
O        7.43563898       6.32515913      12.23159545        3      -0.00112614      -0.00054437      -0.27613996
C        4.40997285       8.02439747       9.95476446        2       0.00226412       0.00084111       0.00138163
Ti       4.42012307       9.71944467      11.24666578        0      -0.00143416      -0.00301972       0.00079632
Ti       5.93679656       8.92292337       8.67940188        0      -0.00091207      -0.00086995      -0.00093850
O        4.40052043       9.79551845       7.76562513        1       0.00263100       0.00085140      -0.00067041
O        5.94955141       8.90395482      12.23159545        3      -0.00207705      -0.00066545      -0.25409281
C        0.27938553      -0.22396823      15.28987478       10       0.00577103       0.00529954       0.08572189
C        1.48568640       0.47934755      15.29826301       10      -0.00103018      -0.00183955       0.06112210
C       -0.91083647       1.86347038      15.26550411       10       0.00100915      -0.00059264       0.51311063
C        0.27692909       2.57707632      15.27314285       10       0.00064962       0.00009664       0.10779241
C       -2.15333208       4.01766721      15.26549856       10       0.00329896      -0.00244318       0.69136789
C       -0.94220454       4.68996139      15.27314029       10      -0.00062101      -0.00098706       0.13053580
C       -3.36752524       6.09446985      15.28987423       10       0.00270899      -0.00047904       0.09452779
C       -2.15473979       6.78677826      15.29826281       10      -0.00103867       0.00005440       0.06168689
C       -4.57716273       8.18204806      15.28798184       10       0.00808781      -0.00151668       0.10223217
C       -3.36653214       8.88047393      15.29927150       10      -0.00226418      -0.00681394       0.03841414
C        2.69538698      -0.21953842      15.30029652       10       0.00019497       0.00327115       0.08246104
C        3.90292018       0.48075909      15.29927141       10       0.00054798       0.00052396       0.04898701
C        1.49096341       1.87752720      15.28987499       10       0.00045877      -0.00024979       0.09250572
C        2.69567345       2.58159660      15.28081486       10       0.00086351       0.00010615       0.10241476
C        0.27345803       3.98277805      15.24701497       10       0.00182392      -0.00052101       0.04797443
C        1.48098401       4.68154825      15.25868492       10       0.00169357       0.00000311       0.10958324
C       -0.94214362       6.09240368      15.28987423       10      -0.00005730       0.00088224       0.11062890
C        0.26969144       6.78369600      15.28081496       10       0.00032610       0.00117538       0.11356145
C       -2.15593620       8.18375796      15.30029673       10       0.00046040       0.00050318       0.07379557
C       -0.94564789       8.87982302      15.29927150       10       0.00053824      -0.00335126       0.04823711
C        5.11270149      -0.21931218      15.30029652       10      -0.00112696       0.00308530       0.07795697
C        6.32452615       0.48015241      15.29826301       10      -0.00040527      -0.00261904       0.05717361
C        3.90387842       1.88087797      15.28798171       10      -0.00001323       0.00063864       0.07448297
C        5.11260393       2.58283395      15.28081486       10       0.00002999       0.00006647       0.06138328
C        2.69433325       3.98159596      15.26693136       10       0.00016735      -0.00123986       0.07177455
C        3.90517055       4.68302297      15.26414350       10      -0.00188783      -0.00030715       0.12047974
C        1.48062348       6.08202616      15.26693126       10       0.00002070       0.00022177       0.07479383
C        2.69393053       6.78055870      15.26414339       10      -0.00084266       0.00095160       0.12869270
C        0.26722596       8.18087802      15.28798184       10       0.00016125       0.00136679       0.06565186
C        1.47907349       8.87703103      15.28081471       10       0.00012727      -0.00320386       0.07834385
C        7.53277507      -0.22268132      15.28987478       10      -0.00067172       0.00228524       0.08512105
C        8.74805522       0.48133530      15.27314266       10      -0.00006787      -0.00124310       0.11393730
C        6.31867425       1.87855571      15.28987499       10      -0.00053227      -0.00209518       0.08680965
C        7.53558261       2.57856642      15.27314285       10       0.00101729      -0.00100762       0.12443283
C        5.11628212       3.98191736      15.26693136       10      -0.00160873       0.00020892       0.07412984
C        6.32994349       4.68391980      15.25868492       10      -0.00105033      -0.00018405       0.05356874
C        3.90550338       6.08156685      15.26106550       10      -0.00188270      -0.00040709       0.05789986
C        5.11760100       6.78185308      15.26414339       10      -0.00056077       0.00004471       0.06423258
C        2.69276030       8.18015148      15.26693109       10      -0.00130905       0.00081309       0.06433340
C        3.90703873       8.88099222      15.25868451       10      -0.00028803      -0.00309585       0.04214894
C        9.96669048      -0.21970251      15.24701492       10       0.00278675       0.00597683       0.08252289
C       11.18753147       0.48025794      15.27314266       10      -0.00788659      -0.00030668       0.07766564
C        8.72506497       1.86731593      15.26550411       10       0.00210211       0.00007829       0.21328175
C        9.96703356       2.57983102      15.02114485       10      -0.00064926      -0.00106152       0.42408246
C        7.53807978       3.98522309      15.24701497       10       0.00113619       0.00102260       0.08038560
C        8.75510066       4.69338788      15.27314029       10      -0.00402927       0.00308592       0.24535658
C        6.33038037       6.08434176      15.26693126       10       0.00080115      -0.00014721       0.08525244
C        7.53994239       6.78665751      15.28081496       10      -0.00369871       0.00347537       0.03626851
C        5.11977897       8.18078229      15.26693109       10       0.00259069       0.00263799       0.07641490
C        6.33304599       8.87761750      15.28081471       10      -0.00438076      -0.00334268       0.03062417
O       10.02932764       2.62163065      13.60336298       11       0.00080826       0.00344162      -0.00011461
H        9.32959867       3.39015236      13.24309992       12       0.00237396       0.00403260      -0.00091178
