132
Lattice="12.12 0.0 0.0 -6.06 10.496227893867395 0.0 0.0 0.0 40.0" Properties=species:S:1:pos:R:3:tags:I:1:forces:R:3 energy=-1210.5518797441534 stress="0.0028773724478611644 2.767895276045621e-06 -1.0052105671994348e-06 2.767895276045621e-06 0.0028803721029217995 7.221947686552563e-07 -1.0052105671994348e-06 7.221947686552563e-07 0.0024081674439401296" pbc="T T F"
C       -0.12187661       0.06753106      10.00724145        2      -0.00305699       0.00005195       0.00410265
Ti      -0.12433654       1.81792583      11.31225013        0       0.00245808       0.00001768      -0.00141551
Ti       1.39198174       0.94249432       8.71695083        0       0.00041509      -0.00072402       0.00368650
O       -0.12421179       1.81784981       7.78018473        1       0.00093387      -0.00097677       0.00295410
O        1.39655769       0.93953866      12.23008024        3      -0.00129707       0.00143754       0.11580482
C       -1.63758070       2.69156163      10.01480436        2       0.00148113      -0.00205061       0.00490078
Ti      -1.63261911       4.44193816      11.29952562        0       0.00050376       0.00170735       0.00042356
Ti      -0.12199647       3.56626125       8.71863216        0       0.00202805       0.00094331       0.00340102
O       -1.63801273       4.43910562       7.77953137        1       0.00032491      -0.00115020       0.00311474
O       -0.11759733       3.56887669      12.23008024        3       0.00027817       0.00076245       0.03841658
C       -3.15237303       5.31577573      10.00659905        2       0.00137676      -0.00128379       0.00201849
Ti      -3.15244492       7.06432040      11.29633105        0      -0.00214116       0.00217045       0.00262536
Ti      -1.63721630       6.19027545       8.71459453        0       0.00011719       0.00068692       0.00244210
O       -3.15202980       7.06400405       7.77573487        1       0.00067185      -0.00126783       0.00312395
O       -1.63744388       6.19513759      12.23008024        3      -0.00063625      -0.00068882       0.09392194
C       -4.66744608       7.93961891      10.00340424        2       0.00041741       0.00019438       0.00001544
Ti      -4.66646761       9.68828368      11.29617773        0      -0.00100200       0.00181145       0.00174411
Ti      -3.15232510       8.81448814       8.71392885        0       0.00066429      -0.00099723      -0.00175389
O       -4.66756670       9.68954994       7.77600391        1      -0.00183486       0.00278295       0.00267557
O       -3.15106021       8.81442004      12.23008024        3      -0.00334762       0.00053609       0.09010457
C        2.90794588       0.06727774      10.00347694        2      -0.00048252       0.00024734       0.00091247
Ti       2.90816752       1.81613236      11.29624642        0       0.00030517       0.00264995       0.00252905
Ti       4.42251196       0.94219618       8.71394578        0       0.00062077      -0.00094394       0.00071569
O        2.90691063       1.81669076       7.77593054        1      -0.00217787       0.00025630       0.00241962
O        4.42206882       0.94054060      12.23008024        3      -0.00086107       0.00214487       0.08653425
C        1.39258238       2.69131867      10.00695046        2      -0.00071571       0.00263478       0.00256962
Ti       1.39347519       4.44015073      11.29873550        0       0.00469093       0.00401219      -0.00069843
Ti       2.90741646       3.56608384       8.71469755        0       0.00069460       0.00015398       0.00284195
O        1.39034508       4.43968518       7.77710472        1       0.00107376       0.00048726       0.00161244
O        2.90878229       3.56531244      12.23008024        3      -0.00005876       0.00162577       0.10291978
C       -0.12174182       5.31620922      10.00627693        2       0.00046483      -0.00217867       0.00332593
Ti      -0.12171672       7.06572876      11.29697084        0       0.00027064       0.00196494       0.00290909
Ti       1.39333684       6.19029142       8.71510374        0      -0.00188313       0.00077395       0.00098885
O       -0.12267720       7.06414119       7.77532644        1       0.00111793      -0.00108195       0.00385685
O        1.39444080       6.19212220      12.23008024        3      -0.00114120       0.00155984       0.10819003
C       -1.63650361       7.93943398      10.00331324        2      -0.00193132       0.00131036       0.00257275
Ti      -1.63680095       9.68870121      11.29645761        0      -0.00347244       0.00275156       0.00226323
Ti      -0.12166389       8.81425385       8.71406606        0      -0.00223947       0.00013692       0.00029854
O       -1.63694782       9.68882265       7.77478456        1      -0.00023041       0.00134532       0.00350312
O       -0.12231079       8.81479654      12.23008024        3      -0.00109256       0.00033837       0.10109919
C        5.93826202       0.06737276      10.00355063        2      -0.00129054       0.00027408       0.00248436
Ti       5.93837146       1.81729355      11.29698953        0      -0.00415288       0.00235399       0.00156525
Ti       7.45273623       0.94249977       8.71491113        0       0.00041717      -0.00209893       0.00432187
O        5.93874930       1.81707561       7.77591780        1       0.00128824      -0.00054575       0.00239456
O        7.44868174       0.94101222      12.23008024        3       0.00031372       0.00009066       0.10823966
C        4.42222135       2.69158520      10.00354269        2       0.00111467       0.00070588      -0.00213385
Ti       4.42177248       4.44067830      11.29522978        0       0.00348004       0.00099027       0.00527749
Ti       5.93686733       3.56674408       8.71430874        0       0.00082416      -0.00321008       0.00057318
O        4.42236808       4.44020507       7.77460371        1       0.00203283      -0.00179904       0.00049238
O        5.93649937       3.56590422      12.23008024        3       0.00209554      -0.00104442       0.10288326
C        2.90852703       5.31604083      10.00292610        2       0.00151364       0.00022145      -0.00163837
Ti       2.90877348       7.06510427      11.29648164        0      -0.00016029      -0.00096665       0.00216833
Ti       4.42235627       6.19043984       8.71267376        0       0.00136282       0.00014556       0.00578452
O        2.90746856       7.06514902       7.77446043        1      -0.00387117       0.00340507      -0.00031740
O        4.42281725       6.19016739      12.23008024        3       0.00137969       0.00080909       0.08925816
C        1.39332796       7.93939506      10.00320258        2      -0.00118801       0.00053447       0.00036348
Ti       1.39300458       9.68904763      11.29682205        0      -0.00279178      -0.00319147       0.00105158
Ti       2.90829161       8.81376601       8.71536934        0      -0.00188118       0.00098306       0.00070637
O        1.39357373       9.69022683       7.77567682        1       0.00116971      -0.00129395       0.00330797
O        2.90749866       8.81265224      12.23008024        3      -0.00276016       0.00025363       0.09877794
C        8.96771149       0.06679660      10.00703547        2       0.00164054       0.00032281       0.00436937
Ti       8.97020487       1.81196360      11.30300565        0      -0.00210983      -0.00069110       0.00121398
Ti      10.48277081       0.94200529       8.71929299        0      -0.00002906      -0.00236306       0.00472092
O        8.96903170       1.81825907       7.77989766        1       0.00064076      -0.00017946       0.00158609
O       10.48426763       0.93585504      12.23008024        3      -0.00076653      -0.00134327       0.00397074
C        7.45244156       2.69150388      10.00700172        2       0.00210079      -0.00128426       0.00164344
Ti       7.44757635       4.44384362      11.29030625        0      -0.00014067      -0.00003848      -0.00228306
Ti       8.96681666       3.56666383       8.72078807        0       0.00226066      -0.00129011       0.00229034
O        7.45462656       4.43966132       7.77735205        1       0.00044265      -0.00035859      -0.00038731
O        8.96177429       3.56915044      12.23008024        3       0.00058352      -0.00089012       0.30715729
C        5.93619120       5.31624426      10.00294227        2       0.00054656       0.00021157      -0.00196073
Ti       5.93734739       7.06518986      11.29581113        0       0.00010486      -0.00226089       0.00274968
Ti       7.45198498       6.19062939       8.71429660        0       0.00359724       0.00187239      -0.00084943
O        5.93814112       7.06553404       7.77459695        1       0.00180357      -0.00067789       0.00219926
O        7.45250854       6.19145854      12.23008024        3       0.00160731      -0.00024342       0.09135554
C        4.42277473       7.93832347      10.00285110        2       0.00079047      -0.00089681       0.00044252
Ti       4.42417890       9.68964437      11.30070138        0      -0.00241981      -0.00550934      -0.00341195
Ti       5.93749808       8.81445747       8.71507946        0       0.00179961      -0.00123101       0.00233622
O        4.42267113       9.69188542       7.77759717        1      -0.00037057      -0.00232588       0.00112077
O        5.93943309       8.81272307      12.23008024        3      -0.00113728       0.00134436       0.10551175
C        0.25335517      -0.04853400      16.70941220       10       0.00228526       0.00084170      -0.02694326
C        1.46266912       0.65310394      16.71780043       10       0.00206499      -0.00080211      -0.01148725
C       -0.94261480       2.04204214      16.68504153       10       0.00336696      -0.00261127       0.50801923
C        0.25025700       2.75064842      16.69268027       10      -0.00176274       0.00276259       0.02517266
C       -2.17799787       4.17727427      16.68503598       10      -0.00379576      -0.00085037       0.24481146
C       -0.96642315       4.85568533      16.69267771       10      -0.00197087       0.00097614       0.02353942
C       -3.38910414       6.25953407      16.70941165       10       0.00203017       0.00041088      -0.01371917
C       -2.17641550       6.95576161      16.71780023       10       0.00443101       0.00327889      -0.00212357
C       -4.60004595       8.35245831      16.70751926       10      -0.00389933      -0.00005837      -0.00778509
C       -3.38819742       9.05196148      16.71880892       10      -0.00215442      -0.00122911      -0.04136821
C        2.67303683      -0.04581005      16.71983394       10       0.00380744       0.00070858      -0.01239360
C        3.88342352       0.65466776      16.71880883       10       0.00168710       0.00111082      -0.03899268
C        1.46605145       2.05114781      16.70941241       10      -0.00167949       0.00007332      -0.02279351
C        2.67310781       2.75412256      16.70035228       10      -0.00348112      -0.00107535      -0.04114904
C        0.24677246       4.15296847      16.66655239       10      -0.00060306       0.00420061       0.13444958
C        1.45740542       4.85252056      16.67822234       10       0.00479701      -0.00224797      -0.06783496
C       -0.96430290       6.25845832      16.70941165       10       0.00069308      -0.00104354      -0.02150560
C        0.24783331       6.95373617      16.70035238       10       0.00267672      -0.00098594      -0.03008697
C       -2.17633679       8.35401317      16.71983415       10      -0.00280666      -0.00057778      -0.01481062
C       -0.96427659       9.05180670      16.71880892       10      -0.00261006       0.00009544      -0.04047551
C        5.09384285      -0.04576330      16.71983394       10      -0.00040606       0.00137429      -0.03399150
C        6.30470799       0.65339772      16.71780043       10       0.00151431      -0.00341701       0.01047833
C        3.88351463       2.05390561      16.70751913       10      -0.00227259       0.00070398      -0.02106347
C        5.09393666       2.75408632      16.70035228       10       0.00007394      -0.00004659      -0.02400092
C        2.67100198       4.15340607      16.68646878       10       0.00277028      -0.00323742      -0.04802264
C        3.88278758       4.85344494      16.68368092       10       0.00115074       0.00057296      -0.01986877
C        1.45911810       6.25313319      16.68646868       10       0.00223384      -0.00196860      -0.03937376
C        2.67114015       6.95274589      16.68368081       10      -0.00105136       0.00159136      -0.00873418
C        0.24738028       8.35239646      16.70751926       10      -0.00035211      -0.00185389      -0.01669924
C        1.45891041       9.05100656      16.70035213       10      -0.00043195       0.00035413      -0.04021697
C        7.51466217      -0.04774753      16.70941220       10      -0.00000345      -0.00154351      -0.01915907
C        8.72827929       0.65521157      16.69268008       10      -0.00108464       0.00283824       0.03106706
C        6.30131343       2.05160710      16.70941241       10      -0.00061164      -0.00306559      -0.02232019
C        7.51635418       2.75172853      16.69268027       10       0.00068434       0.00058001       0.03114977
C        5.09492810       4.15349784      16.68646878       10      -0.00008853      -0.00072624      -0.04128640
C        6.30823023       4.85304072      16.67822234       10      -0.00303523       0.00007733      -0.06135260
C        3.88321341       6.25308364      16.68060292       10      -0.00292404       0.00314810      -0.04938177
C        5.09507483       6.95346508      16.68368081       10      -0.00053798      -0.00179289      -0.02090616
C        2.67119051       8.35215820      16.68646851       10       0.00082087       0.00036717      -0.04045446
C        3.88327835       9.05375618      16.67822193       10       0.00169220      -0.00101356      -0.08309849
C        9.94342044      -0.04410826      16.66655234       10      -0.00264158      -0.00205293       0.13767142
C       11.15958846       0.65450297      16.69268008       10      -0.00031725      -0.00346977       0.01524092
C        8.71007005       2.04405478      16.68504153       10       0.00005196       0.00420772       0.23079413
C        9.94132466       2.75591497      16.44068227       10       0.00421708      -0.00282592      -2.15779447
C        7.51907762       4.15387078      16.66655239       10      -0.00251408       0.00201689       0.12753886
C        8.73227733       4.85717349      16.69267771       10      -0.00133082       0.00024503       0.02748725
C        6.30732079       6.25362847      16.68646868       10       0.00128447      -0.00106060      -0.04633080
C        7.51883110       6.95401898      16.70035238       10      -0.00033693       0.00200650      -0.03774780
C        5.09571857       8.35298242      16.68646851       10       0.00145958      -0.00145635      -0.03614377
C        6.30851903       9.05086916      16.70035213       10      -0.00067387       0.00203695      -0.03996572
O       10.02025424       2.69014661      14.87679217       11       0.00002403       0.00004934       0.00469181
H        9.31886050       3.20837553      14.43409907       12      -0.00158755       0.00144689      -0.00373673
