132
Lattice="12.12 0.0 0.0 -6.06 10.496227893867395 0.0 0.0 0.0 40.0" Properties=species:S:1:pos:R:3:tags:I:1:forces:R:3 stress="0.002811207699532128 -9.852866299589296e-06 6.187212321670992e-06 -9.852866299589296e-06 0.0027764081341022477 -6.398040571939661e-06 6.187212321670992e-06 -6.398040571939661e-06 0.0028619629563466737" energy=-1209.1369729044443 pbc="T T F"
C        0.00373976      -0.00918561       9.96949089        2      -0.00052577      -0.00123212      -0.00312074
Ti       0.00688839       1.74522600       8.69502491        0       0.00126629      -0.00137240       0.00415101
Ti       1.52318304       0.86926129      11.28645846        0       0.00159764      -0.00110535      -0.00209903
O       -0.00072631       1.73915812      12.23008024        3       0.00104091      -0.00173278      -0.21166851
O        1.51126741       0.87092338       7.76934903        1      -0.00023914       0.00067010      -0.00353160
C       -1.51875868       2.62462400      10.01448111        2      -0.00013388      -0.00167404       0.00038447
Ti      -1.50611491       4.38186270       8.69604406        0       0.00189604      -0.00088102       0.00510998
Ti      -0.01631121       3.49564417      11.30821081        0      -0.00094837      -0.00214337       0.00133766
O       -1.45686503       4.44900858      12.23008024        3       0.00048810       0.00074874      -0.75583163
O       -0.00538083       3.49049828       7.77735827        1      -0.00188266       0.00080655      -0.00119771
C       -3.02465534       5.24910918       9.98652711        2       0.00157599      -0.00173173       0.00146167
Ti      -3.03114807       6.99568933       8.69437778        0       0.00280440       0.00039297       0.00571259
Ti      -1.50842278       6.14663417      11.27108995        0       0.00178728      -0.00303656       0.00284558
O       -3.03182025       7.00785973      12.23008024        3       0.00233380       0.00061917      -0.14210186
O       -1.51979039       6.11827886       7.76491298        1       0.00092613      -0.00200328       0.00069685
C       -4.54648188       7.87053267       9.96956504        2       0.00107021      -0.00095352       0.00121538
Ti      -4.54877798       9.61469840       8.69150982        0       0.00207537      -0.00087795       0.00422023
Ti      -3.03644851       8.74780903      11.30342154        0       0.00029011      -0.00332766      -0.00203363
O       -4.54978580       9.61726080      12.23008024        3      -0.00066711       0.00122318      -0.14665525
O       -3.03386495       8.74121070       7.76601700        1       0.00218264      -0.00139437       0.00107972
C        3.02914252      -0.00548224       9.97399639        2       0.00171444       0.00057543      -0.00057843
Ti       3.03041984       1.74674282       8.69145092        0       0.00071423       0.00083894       0.00289888
Ti       4.54022434       0.87404686      11.29180868        0      -0.00261243      -0.00111694      -0.00233394
O        3.02688752       1.74548825      12.23008024        3       0.00268130       0.00306950      -0.13539084
O        4.54543740       0.87193422       7.76677897        1       0.00228795       0.00069874      -0.00154861
C        1.51550888       2.61667115       9.97022519        2       0.00233052       0.00347627      -0.00218006
Ti       1.51607357       4.36948272       8.69530829        0       0.00147954      -0.00020362       0.00298407
Ti       3.02899204       3.49303610      11.29678356        0       0.00103463       0.00283254       0.00054312
O        1.52179179       4.37180075      12.23008024        3      -0.00090421      -0.00011785      -0.14061126
O        3.03065780       3.49287916       7.76699570        1       0.00153142       0.00009275      -0.00235830
C        0.00510822       5.25410214       9.95544995        2       0.00201059      -0.00169148       0.00049878
Ti       0.00599729       6.99264355       8.68654765        0       0.00290676       0.00060873       0.00367720
Ti       1.51474781       6.11511769      11.30304831        0       0.00207963      -0.00344194      -0.00229170
O        0.01131549       6.99984610      12.23008024        3       0.00068636      -0.00279006      -0.14229152
O        1.51863046       6.11527661       7.76286665        1      -0.00106694      -0.00050517      -0.00222442
C       -1.51444110       7.87765940       9.96470432        2       0.00177485      -0.00145273      -0.00057563
Ti      -1.51559259       9.61482013       8.67847685        0       0.00306910      -0.00052697       0.00296022
Ti       0.00551294       8.74245055      11.29594226        0      -0.00073011      -0.00041776      -0.00392504
O       -1.51628890       9.61658231      12.23008024        3       0.00049815      -0.00114915      -0.16786594
O       -0.00300463       8.74395411       7.75801530        1       0.00086891      -0.00253013      -0.00101338
C        6.05047553      -0.01375203       9.97030459        2       0.00140233      -0.00148928       0.00066393
Ti       6.05589304       1.74529411       8.69875152        0      -0.00137955      -0.00239236       0.00437614
Ti       7.54769176       0.84815929      11.26479207        0       0.00004390       0.00027967       0.00140056
O        6.05283424       1.73876614      12.23008024        3       0.00123540      -0.00306227      -0.10685443
O        7.57449581       0.87247030       7.76720579        1      -0.00026925       0.00127887      -0.00127402
C        4.54217069       2.61581139       9.96789671        2       0.00093151       0.00193460       0.00007669
Ti       4.54380649       4.36665257       8.69364207        0      -0.00008619       0.00130296       0.00406342
Ti       6.06775934       3.48699733      11.29967036        0       0.00157400       0.00099219       0.00058411
O        4.54548273       4.36448967      12.23008024        3       0.00404486       0.00070222      -0.14448276
O        6.06322087       3.49174956       7.77263435        1       0.00420865       0.00138969       0.00012957
C        3.03141188       5.24024797       9.96872536        2       0.00115382       0.00029524      -0.00244150
Ti       3.03244880       6.98791117       8.69004993        0       0.00136530       0.00079697       0.00824011
Ti       4.54979605       6.11042272      11.28877764        0       0.00262004      -0.00050776      -0.00193151
O        3.03113992       6.98679005      12.23008024        3       0.00032827      -0.00080535      -0.16596542
O        4.54740363       6.11427183       7.76521963        1       0.00452988      -0.00102869      -0.00230133
C        1.51590549       7.86702851       9.95923230        2       0.00188273      -0.00078988      -0.00180482
Ti       1.51925188       9.60569205       8.68516678        0       0.00033740      -0.00096434       0.00217236
Ti       3.03490211       8.73941702      11.29482438        0       0.00051126      -0.00232968      -0.00168838
O        1.51715924       9.60679395      12.23008024        3       0.00091044       0.00142166      -0.15064380
O        3.03336046       8.73570709       7.75910422        1       0.00008087       0.00242999      -0.00421930
C        9.08677096      -0.01967360       9.95054840        2      -0.00046534       0.00027780      -0.00152381
Ti       9.08113419       1.73468652       8.68289636        0       0.00072897      -0.00309457       0.00477088
Ti      10.62023524       0.86662013      11.27729415        0       0.00424022      -0.00327476      -0.00006713
O        9.06634805       1.62586118      12.23008024        3      -0.00104002      -0.00529768      -0.79071218
O       10.60533907       0.87770629       7.77546189        1      -0.00118184       0.00092357      -0.00437179
C        7.58009808       2.61489551       9.98212313        2      -0.00063321      -0.00236521       0.00255463
Ti       7.56844700       4.36921328       8.69092379        0      -0.00032369       0.00176817       0.00363759
Ti       9.12424565       3.51877673      11.32088477        0      -0.00164917      -0.00277277      -0.00097258
O        7.56456913       4.37448479      12.23008024        3       0.00231208      -0.00388360      -0.14994337
O        9.09414471       3.49224444       7.78815396        1       0.00028197       0.00122822      -0.00105349
C        6.06291992       5.24102601       9.97029884        2       0.00215146      -0.00181447       0.00133634
Ti       6.05852073       6.99076347       8.69096541        0       0.00065042       0.00200156       0.00622041
Ti       7.57753866       6.11960522      11.29050647        0       0.00015523      -0.00108457       0.00153854
O        6.06080311       6.98976680      12.23008024        3       0.00301703      -0.00393555      -0.13751743
O        7.57807430       6.11447080       7.77160546        1       0.00186689      -0.00331079       0.00081228
C        4.54652264       7.86381067       9.96956607        2      -0.00025972      -0.00230552      -0.00192563
Ti       4.54135107       9.61308397       8.68875451        0       0.00079013       0.00006560       0.00189239
Ti       6.05547800       8.73271451      11.29784398        0       0.00048550       0.00302637      -0.00395802
O        4.54633741       9.61151922      12.23008024        3       0.00034646      -0.00320222      -0.16713139
O        6.06011029       8.73945981       7.76606187        1       0.00122711      -0.00023200      -0.00332560
C        0.06394542       0.08141649      15.63856200       10      -0.00665705      -0.00216742       0.04211089
C        1.26947844       0.78675674      15.64695023       10      -0.00389142       0.00061507      -0.01496135
C       -1.13373209       2.17036692      15.61419133       10       0.00068215      -0.00018666       0.40348470
C        0.05663854       2.88346180      15.62183007       10      -0.00087090       0.00156150       0.07427479
C       -2.37080053       4.32634458      15.61418578       10      -0.00403522       0.00345614       0.71797162
C       -1.16002290       4.99362750      15.62182751       10      -0.00265496       0.00319088       0.10674829
C       -3.58359833       6.39748259      15.63856145       10      -0.00220339       0.00388472       0.06714055
C       -2.37060452       7.09060868      15.64695003       10       0.00073504      -0.00060367       0.06151493
C       -4.79233737       8.48447267      15.63666906       10      -0.00290941       0.00190221       0.04151499
C       -3.58067938       9.18575170      15.64795872       10       0.00030236       0.00308249      -0.00387755
C        2.48278198       0.08728279      15.64898374       10      -0.00294510       0.00009284       0.04646630
C        3.69101229       0.78866367      15.64795863       10      -0.00248409       0.00196285       0.02354144
C        1.27487219       2.18348247      15.63856221       10      -0.00246031      -0.00057196       0.04779698
C        2.48128698       2.88720126      15.62950208       10      -0.00210798      -0.00200852       0.02372406
C        0.05695541       4.28846690      15.59570219       10      -0.00435311       0.00143376       0.03476601
C        1.26551731       4.98585479      15.60737214       10      -0.00192704      -0.00230917       0.02868071
C       -1.15793174       6.39785737      15.63856145       10       0.00099933       0.00188385       0.03900772
C        0.05513139       7.08897373      15.62950218       10      -0.00001316       0.00100634       0.07486541
C       -2.36928942       8.48969695      15.64898395       10      -0.00375865      -0.00180617       0.03348213
C       -1.15827752       9.18706082      15.64795872       10      -0.00607176       0.00258237       0.04708265
C        4.89981045       0.08833234      15.64898374       10      -0.00099069       0.00166958       0.04191312
C        6.11041532       0.78822397      15.64695023       10       0.00235156      -0.00040053       0.08608595
C        3.69091051       2.18752832      15.63666893       10      -0.00269722       0.00009533       0.05214280
C        4.89951585       2.88788801      15.62950208       10      -0.00259317      -0.00036784       0.09864756
C        2.47993287       4.28603285      15.61561858       10      -0.00059577      -0.00187460       0.06283944
C        3.69108607       4.98650753      15.61283072       10      -0.00085560       0.00256316       0.07516079
C        1.26613658       6.38683729      15.61561848       10      -0.00088797      -0.00081651       0.06442342
C        2.47967885       7.08458832      15.61283061       10      -0.00279178       0.00354916       0.05484229
C        0.05323860       8.48659928      15.63666906       10      -0.00436949       0.00137248       0.03770675
C        1.26443409       9.18293536      15.62950193       10      -0.00122644      -0.00004325       0.07165488
C        7.31539450       0.08326086      15.63856200       10       0.00154382      -0.00283670       0.04533429
C        8.53067018       0.78480128      15.62182988       10      -0.00215644       0.00167498       0.14851359
C        6.10394562       2.18439413      15.63856221       10      -0.00164552       0.00012808       0.07370703
C        7.32021363       2.88506028      15.62183007       10      -0.00258036       0.00231225       0.12676602
C        4.90281620       4.28586484      15.61561858       10      -0.00021087       0.00080609       0.07875498
C        6.11484807       4.98643606      15.60737214       10      -0.00007767       0.00112759       0.07130731
C        3.69138051       6.38453275      15.60975272       10      -0.00282184       0.00463429       0.04976280
C        4.90235008       7.08418291      15.61283061       10      -0.00107845       0.00324245       0.04791047
C        2.47639453       8.48438319      15.61561831       10       0.00125380       0.00283421       0.05587910
C        3.68948650       9.18406234      15.60737173       10       0.00221631       0.00415283      -0.01385524
C        9.74961655       0.08256977      15.59570214       10      -0.00442464       0.00019383       0.00872599
C       10.96795034       0.78496760      15.62182988       10      -0.00016035       0.00012980       0.07201350
C        8.50619756       2.17045145      15.61419133       10      -0.00397334       0.00118103       0.45820483
C        9.74552775       2.88988967      15.36983207       10      -0.00030435      -0.00228421      -0.51198522
C        7.32290458       4.29057329      15.59570219       10      -0.00127338       0.00205368       0.06291845
C        8.53865885       4.99591158      15.62182751       10      -0.00091165       0.00273474       0.15289921
C        6.11461565       6.38591565      15.61561848       10      -0.00178317       0.00158050       0.05842079
C        7.32466612       7.08788200      15.62950218       10      -0.00034373       0.00124793       0.04790530
C        4.90324652       8.48322170      15.61561831       10       0.00167358       0.00186864       0.05288069
C        6.11570441       9.18153963      15.62950193       10       0.00430421       0.00262006      -0.00052854
O        9.76983891       2.96803764      13.92277835       11      -0.00309490      -0.00011042       0.00835347
H        9.40562308       2.11820173      13.48448071       12      -0.00028863      -0.00145579      -0.00134972
