130
Lattice="12.12 0.0 0.0 -6.06 10.496227893867395 0.0 0.0 0.0 40.0" Properties=species:S:1:pos:R:3:tags:I:1:forces:R:3 energy=-1199.8646628300012 stress="0.0028297765828557394 -1.760753969183388e-07 5.4020591927802684e-08 -1.760753969183388e-07 0.0028296154731693207 -7.935956817000257e-08 5.4020591927802684e-08 -7.935956817000257e-08 0.002954121336936408" pbc="T T F"
C        0.00011791       0.00009169       9.96962329        2      -0.00015894      -0.00016776      -0.00011699
Ti      -0.00002890       1.74952168       8.69346222        0       0.00001043       0.00024680      -0.00469498
Ti       1.51551859       0.87514000      11.29149361        0       0.00040461       0.00014416       0.00214051
O        0.00013918       1.74882595      12.23008024        3      -0.00028251      -0.00031537      -0.17752264
O        1.51481781       0.87465042       7.77084187        1      -0.00012683      -0.00014592       0.00326026
C       -1.51514635       2.62407209       9.97188543        2      -0.00012784      -0.00048441      -0.00058966
Ti      -1.51434700       4.37471831       8.69102394        0      -0.00066687      -0.00053986      -0.00433417
Ti      -0.00028062       3.49643044      11.29228327        0       0.00026515       0.00100924       0.00131933
O       -1.51595514       4.37428555      12.23008024        3      -0.00037809      -0.00032601      -0.15985298
O       -0.00008019       3.49750508       7.76961963        1       0.00007965       0.00021137       0.00323104
C       -3.02940019       5.24835727       9.96905336        2       0.00011057       0.00029657      -0.00068684
Ti      -3.02830598       6.99762887       8.69114482        0      -0.00093846      -0.00058559      -0.00451484
Ti      -1.51683386       6.12134880      11.29073226        0       0.00059737       0.00035750       0.00128786
O       -3.02953606       6.99636100      12.23008024        3      -0.00009508      -0.00020285      -0.15541689
O       -1.51538069       6.12239834       7.76754832        1      -0.00006069       0.00009583       0.00329515
C       -4.54497846       7.87211138       9.97196767        2      -0.00034092       0.00034808      -0.00047817
Ti      -4.54483860       9.62138283       8.69295926        0       0.00006970      -0.00000183      -0.00464144
Ti      -3.03252789       8.74798402      11.29198984        0       0.00061553      -0.00027785       0.00148576
O       -4.54560230       9.62214832      12.23008024        3       0.00007602      -0.00011441      -0.18034345
O       -3.03120565       8.74741381       7.76931387        1       0.00025011      -0.00004685       0.00310848
C        3.02994979       0.00019715       9.97107644        2      -0.00056723      -0.00028219      -0.00056481
Ti       3.03100245       1.74979707       8.69080776        0       0.00021346       0.00030971      -0.00429601
Ti       4.54458918       0.87675866      11.28663048        0       0.00004808      -0.00020069       0.00186033
O        3.03096013       1.74985551      12.23008024        3      -0.00032634      -0.00011928      -0.17378520
O        4.54435654       0.87454664       7.76836047        1       0.00012018       0.00005620       0.00335127
C        1.51517100       2.62396414       9.97135040        2      -0.00038692      -0.00076107      -0.00103012
Ti       1.51442790       4.37458686       8.69129996        0       0.00073335      -0.00045955      -0.00395610
Ti       3.03163069       3.49713833      11.28654975        0      -0.00019242       0.00097876       0.00197455
O        1.51594211       4.37404162      12.23008024        3       0.00016162      -0.00004161      -0.16427702
O        3.02950642       3.49833520       7.76856577        1       0.00015464      -0.00000835       0.00331213
C        0.00001455       5.24744770       9.96627928        2      -0.00028139      -0.00043342      -0.00067836
Ti       0.00020653       6.99776776       8.69337502        0       0.00002300      -0.00024559      -0.00466562
Ti       1.51622065       6.12117387      11.29290653        0      -0.00010348      -0.00014761       0.00056142
O        0.00010019       6.99763113      12.23008024        3       0.00014327      -0.00005294      -0.13990246
O        1.51536060       6.12222834       7.76774543        1       0.00001353       0.00014354       0.00359776
C       -1.51541347       7.87243801       9.96539846        2      -0.00032511       0.00014111      -0.00044777
Ti      -1.51427624       9.62038152       8.69152409        0      -0.00002318       0.00086208      -0.00459615
Ti      -0.00040864       8.74816928      11.29396601        0      -0.00006942      -0.00036255       0.00093791
O       -1.51377622       9.62176928      12.23008024        3       0.00005290      -0.00011016      -0.16319344
O       -0.00015631       8.74739086       7.76774731        1       0.00006932      -0.00004594       0.00350383
C        6.05991091      -0.00033211       9.96827682        2       0.00004792      -0.00024861      -0.00047650
Ti       6.06013778       1.74849837       8.68969858        0      -0.00000979       0.00096318      -0.00446068
Ti       7.57505197       0.87642815      11.28678442        0      -0.00047724      -0.00052032       0.00193003
O        6.06012599       1.75069393      12.23008024        3       0.00021463      -0.00000528      -0.13991378
O        7.57561667       0.87439338       7.76833248        1      -0.00001878       0.00013373       0.00353283
C        4.54468033       2.62384005       9.96893239        2       0.00013860      -0.00040633      -0.00100890
Ti       4.54454858       4.37397466       8.68967900        0       0.00064687      -0.00048070      -0.00415815
Ti       6.06035502       3.49928669      11.29432384        0      -0.00051638       0.00019273       0.00081194
O        4.54633447       4.37296138      12.23008024        3       0.00018487       0.00015289      -0.13826696
O        6.05988206       3.49860313       7.77020383        1      -0.00003892       0.00008068       0.00320012
C        3.02949553       5.24821571       9.96890193        2      -0.00002765       0.00012618      -0.00094307
Ti       3.02818847       6.99781984       8.69170471        0       0.00104421      -0.00056491      -0.00443280
Ti       4.54629766       6.12207696      11.28726899        0      -0.00082426      -0.00056195       0.00179900
O        3.02934662       6.99649952      12.23008024        3       0.00059364       0.00008940      -0.15362424
O        4.54488328       6.12355438       7.76861473        1       0.00021637      -0.00021078       0.00336813
C        1.51524216       7.87230061       9.96426530        2       0.00033342       0.00056877      -0.00025071
Ti       1.51436881       9.62002414       8.69186818        0       0.00013007       0.00097674      -0.00492934
Ti       3.03306736       8.74854359      11.29288461        0      -0.00089605      -0.00101385       0.00138703
O        1.51377268       9.62144188      12.23008024        3       0.00002372       0.00049692      -0.15692479
O        3.03134435       8.74756111       7.76924368        1      -0.00028337      -0.00021797       0.00346112
C        9.09012123       0.00011923       9.97132128        2       0.00045391       0.00019585      -0.00026358
Ti       9.08878066       1.74965319       8.69065189        0      -0.00018553       0.00025575      -0.00491524
Ti      10.60391835       0.87591877      11.29051076        0       0.00063321      -0.00036166       0.00244060
O        9.08846578       1.75024897      12.23008024        3       0.00004590      -0.00005441      -0.16783882
O       10.60512944       0.87472427       7.77070006        1       0.00019676      -0.00019554       0.00337890
C        7.57518784       2.62373578       9.96828418        2       0.00043222      -0.00021219      -0.00085009
Ti       7.57526771       4.37369798       8.68973112        0      -0.00059345      -0.00044223      -0.00434873
Ti       9.08874217       3.49766115      11.28705429        0       0.00013442       0.00065854       0.00204150
O        7.57377623       4.37292869      12.23008024        3      -0.00013806      -0.00014405      -0.13307608
O        9.09058244       3.49835777       7.76880092        1      -0.00015802      -0.00001871       0.00332941
C        6.05985300       5.24842218       9.96766097        2       0.00034866       0.00034836      -0.00077447
Ti       6.05979125       6.99621675       8.69045548        0      -0.00010506      -0.00033337      -0.00447877
Ti       7.57377830       6.12228069      11.28783241        0       0.00021559      -0.00028327       0.00175504
O        6.06004227       6.99525442      12.23008024        3       0.00000871       0.00067724      -0.16390359
O        7.57506380       6.12355121       7.76891650        1      -0.00015282      -0.00019855       0.00320236
C        4.54509155       7.87220836       9.97177153        2       0.00029610       0.00071080      -0.00081459
Ti       4.54484817       9.62142494       8.69275397        0      -0.00020803      -0.00008528      -0.00489674
Ti       6.06039385       8.74495859      11.28918815        0       0.00010899      -0.00012317       0.00247671
O        4.54610054       9.62226872      12.23008024        3       0.00008132       0.00021989      -0.18060740
O        6.06004080       8.74690450       7.77045041        1      -0.00002320       0.00023201       0.00333261
C        0.04488853       0.06738921      15.52238793       10       0.00003162      -0.00063054       0.04900305
C        1.25767500       0.76767875      15.52238793       10       0.00201958       0.00147356       0.00559266
C       -1.16852734       2.16836363      15.52238793       10      -0.00012106      -0.00050125       0.03887903
C        0.04485921       2.86736641      15.52238793       10      -0.00108494      -0.00013972       0.00837555
C       -2.38094739       4.26638107      15.52238793       10       0.00077040       0.00008256       0.05737070
C       -1.16796846       4.96559797      15.52238793       10       0.00118795       0.00056742       0.05854461
C       -3.59186967       6.36352461      15.52238793       10       0.00041246       0.00039763       0.05994132
C       -2.37975727       7.06429727      15.52238793       10      -0.00023438       0.00013483       0.06231852
C       -4.80242959       8.46236456      15.52238793       10      -0.00309764       0.00019970       0.03796257
C       -3.59046953       9.16359978      15.52238793       10       0.00060051       0.00063188       0.01006366
C        2.47076856       0.06763514      15.52238793       10       0.00049484       0.00028899       0.04188409
C        3.68240028       0.76853570      15.52238793       10      -0.00026519      -0.00036831       0.03264246
C        1.25819008       2.16835240      15.52238793       10      -0.00092479       0.00050228       0.04098177
C        2.47077262       2.86739528      15.52238793       10      -0.00027147      -0.00101087       0.03204399
C        0.04480512       4.26667728      15.52238793       10       0.00022236      -0.00010007       0.04034978
C        1.25768283       4.96564418      15.52238793       10       0.00016479      -0.00034838       0.05641447
C       -1.16748135       6.36505054      15.52238793       10      -0.00098895       0.00072361       0.06737281
C        0.04503212       7.06505590      15.52238793       10      -0.00134535      -0.00017562       0.07522170
C       -2.37869163       8.46401135      15.52238793       10      -0.00039803      -0.00041942       0.04516158
C       -1.16699752       9.16503486      15.52238793       10      -0.00044355      -0.00046666       0.06078424
C        4.89399568       0.06886183      15.52238793       10      -0.00025397       0.00070689       0.05445574
C        6.10505158       0.76864309      15.52238793       10       0.00021883       0.00036241       0.07566461
C        3.68285342       2.16799850      15.52238793       10      -0.00026520      -0.00111605       0.03539359
C        4.89385027       2.86725814      15.52238793       10       0.00060468      -0.00103784       0.09463265
C        2.47072963       4.26653612      15.52238793       10      -0.00008812      -0.00083775       0.05344765
C        3.68221784       4.96528094      15.52238793       10      -0.00032158       0.00049578       0.07809433
C        1.25747238       6.36520030      15.52238793       10      -0.00059141       0.00080212       0.06843531
C        2.46987426       7.06452901      15.52238793       10       0.00049130       0.00082803       0.06377493
C        0.04507408       8.46498403      15.52238793       10      -0.00007666      -0.00039904       0.06993612
C        1.25708908       9.16521122      15.52238793       10       0.00054091      -0.00081707       0.06374011
C        7.31622549       0.06900962      15.52238793       10       0.00035142       0.00042789       0.05910778
C        8.52773632       0.76862478      15.52238793       10      -0.00015882       0.00080892       0.04282803
C        6.10510527       2.16804474      15.52238793       10       0.00134465       0.00004317       0.06301592
C        7.31628764       2.86720932      15.52238793       10       0.00091357      -0.00058096       0.09932825
C        4.89411201       4.26579842      15.52238793       10      -0.00030613       0.00010177       0.06117667
C        6.10511431       4.96506361      15.52238793       10       0.00006409      -0.00011871       0.10552487
C        3.68199137       6.36386268      15.52238793       10       0.00048350       0.00075336       0.06041382
C        4.89357111       7.06327047      15.52238793       10       0.00113274      -0.00058938       0.05030195
C        2.46882428       8.46430063      15.52238793       10       0.00054817       0.00015609       0.05217670
C        3.68063250       9.16389422      15.52238793       10      -0.00062864      -0.00008752       0.01198119
C        9.73934926       0.06787907      15.52238793       10      -0.00127222      -0.00025973       0.03929005
C       10.95211241       0.76785811      15.52238793       10       0.00253979      -0.00006821       0.00799678
C        8.52721659       2.16790107      15.52238793       10       0.00003497       0.00026163       0.03845440
C        9.73908498       2.86732451      15.52238793       10      -0.00047083       0.00022055       0.04064345
C        7.31606238       4.26567697      15.52238793       10      -0.00053152      -0.00045155       0.06278732
C        8.52783008       4.96514032      15.52238793       10      -0.00015036       0.00051771       0.08087101
C        6.10500150       6.36330880      15.52238793       10       0.00129347       0.00002856       0.03898910
C        7.31657763       7.06298395      15.52238793       10      -0.00002685       0.00079749       0.04894560
C        4.89269318       8.46276241      15.52238793       10      -0.00218753      -0.00141513       0.03822874
C        6.10514936       9.16314101      15.52238793       10      -0.00059573       0.00050714       0.01052401
