130
Lattice="12.12 0.0 0.0 -6.06 10.496227893867395 0.0 0.0 0.0 40.0" Properties=species:S:1:pos:R:3:tags:I:1:forces:R:3 energy=-1199.1425281887016 stress="0.0027664075861783084 7.956321331058242e-08 6.785397848260787e-07 7.956321331058242e-08 0.002766777134328751 1.0011806115438567e-06 6.785397848260787e-07 1.0011806115438567e-06 0.0030814664868929822" pbc="T T F"
C        0.00024139       0.00031247       9.97019494        2      -0.00012818      -0.00006885       0.00017749
Ti      -0.00019121       1.75027229       8.69522110        0       0.00013358       0.00026898      -0.00251028
Ti       1.51506000       0.87489278      11.28103752        0       0.00085893       0.00068099       0.00152131
O        0.00014803       1.74962331      12.23008024        3      -0.00035178      -0.00070906      -0.22408824
O        1.51404206       0.87434336       7.77064609        1       0.00035594       0.00022527       0.00191815
C       -1.51470571       2.62290252       9.96916358        2      -0.00015738      -0.00076956      -0.00007392
Ti      -1.51544059       4.37420570       8.69711256        0      -0.00038069      -0.00035881      -0.00291911
Ti       0.00015555       3.49573983      11.28728881        0       0.00113480       0.00219481       0.00085949
O       -1.51874394       4.37487806      12.23008024        3      -0.00015689      -0.00028314      -0.18487111
O        0.00003530       3.49837916       7.77202770        1      -0.00003120       0.00038118       0.00183358
C       -3.02992285       5.24806779       9.96593859        2      -0.00004568       0.00027231       0.00016381
Ti      -3.02983822       6.99684649       8.69718443        0      -0.00059140      -0.00025853      -0.00291998
Ti      -1.51607609       6.12217979      11.28871475        0       0.00045369       0.00016905       0.00078671
O       -3.03138284       6.99385048      12.23008024        3       0.00023254       0.00039082      -0.18284040
O       -1.51462813       6.12300641       7.77242765        1       0.00000470       0.00021463       0.00201732
C       -4.54596263       7.87316646       9.96840249        2      -0.00027304       0.00072491       0.00026020
Ti      -4.54424186       9.62077479       8.69510773        0      -0.00008263       0.00040851      -0.00258827
Ti      -3.03232766       8.74844307      11.28779511        0       0.00158258      -0.00025420       0.00004327
O       -4.54458091       9.62112988      12.23008024        3      -0.00019951       0.00026314      -0.22211941
O       -3.03022631       8.74707895       7.77185338        1       0.00024297       0.00001092       0.00201879
C        3.02889329       0.00085434       9.96852227        2      -0.00067662      -0.00006287      -0.00018191
Ti       3.03009725       1.74940492       8.69501849        0       0.00072247       0.00067894      -0.00284123
Ti       4.54494540       0.87901637      11.28627494        0       0.00026362       0.00031776       0.00135414
O        3.03444401       1.75205514      12.23008024        3      -0.00030451      -0.00031510      -0.19096522
O        4.54410575       0.87461461       7.77083429        1       0.00053920       0.00000431       0.00218249
C        1.51511244       2.62293736       9.96921210        2      -0.00062820      -0.00114875      -0.00066961
Ti       1.51526975       4.37437139       8.69681580        0       0.00082798      -0.00019816      -0.00244430
Ti       3.03349306       3.49724445      11.28603517        0       0.00011214       0.00121201       0.00171055
O        1.51804259       4.37517184      12.23008024        3       0.00002384      -0.00010104      -0.18787558
O        3.02926099       3.49805874       7.77084502        1       0.00042695       0.00058195       0.00206351
C        0.00009781       5.24702650       9.96805805        2      -0.00039071      -0.00039731      -0.00066710
Ti      -0.00004435       6.99754131       8.69823704        0       0.00025297       0.00002377      -0.00291323
Ti       1.51627898       6.12179064      11.28853176        0      -0.00027965      -0.00005006       0.00134891
O        0.00053197       6.99865438      12.23008024        3      -0.00020383       0.00039077      -0.17715454
O        1.51452074       6.12307059       7.77246677        1       0.00014995       0.00030467       0.00176951
C       -1.51599180       7.87291096       9.96793767        2      -0.00058261       0.00037681      -0.00005323
Ti      -1.51429219       9.62139162       8.69694132        0       0.00010126       0.00100451      -0.00279473
Ti      -0.00028193       8.74927918      11.28834583        0       0.00013725      -0.00043242       0.00082678
O       -1.51266563       9.62325226      12.23008024        3       0.00021238      -0.00024263      -0.18625771
O        0.00000819       8.74638803       7.77249547        1       0.00005787       0.00019679       0.00194694
C        6.05984478       0.00049067       9.96577973        2       0.00009211       0.00016894       0.00004717
Ti       6.06007208       1.74891129       8.69374581        0       0.00009804       0.00110936      -0.00345753
Ti       7.57513327       0.87996519      11.28752566        0      -0.00089969      -0.00008279       0.00141476
O        6.06067664       1.75317940      12.23008024        3       0.00065705       0.00048153      -0.14777416
O        7.57572702       0.87478073       7.77101951        1      -0.00011830       0.00004301       0.00254150
C        4.54436225       2.62378135       9.96776852        2       0.00040654      -0.00053091      -0.00042746
Ti       4.54453491       4.37384403       8.69371350        0       0.00086680      -0.00037783      -0.00294782
Ti       6.06015005       3.49893565      11.28610413        0      -0.00071191       0.00083204       0.00286575
O        4.54896432       4.37264823      12.23008024        3       0.00090029       0.00011705      -0.13992944
O        6.06001205       3.49882372       7.77127808        1       0.00020316       0.00019230       0.00223647
C        3.03007703       5.24780362       9.96575736        2       0.00022775       0.00028523      -0.00047755
Ti       3.02999580       6.99697560       8.69729689        0       0.00070648      -0.00035365      -0.00312703
Ti       4.54966084       6.11993033      11.28878928        0      -0.00097768      -0.00099567       0.00100315
O        3.03136866       6.99447810      12.23008024        3       0.00018824       0.00088643      -0.18568658
O        4.54538082       6.12334934       7.77123909        1      -0.00003962      -0.00006925       0.00230535
C        1.51598916       7.87279713       9.96803148        2       0.00053308       0.00084751      -0.00045958
Ti       1.51451179       9.62167143       8.69723094        0       0.00011424       0.00093272      -0.00346079
Ti       3.03178431       8.74814675      11.28799986        0      -0.00097581      -0.00144477       0.00054982
O        1.51303124       9.62364751      12.23008024        3       0.00018223       0.00016550      -0.18616710
O        3.03006877       8.74697378       7.77174409        1      -0.00001786       0.00015046       0.00226237
C        9.09122417       0.00074024       9.96774627        2       0.00078154       0.00044503       0.00010745
Ti       9.09004324       1.74924475       8.69550474        0      -0.00058146       0.00063030      -0.00363736
Ti      10.60647109       0.87445436      11.28159459        0      -0.00001543       0.00047383       0.00142392
O        9.08593203       1.75204941      12.23008024        3      -0.00020803      -0.00001239      -0.18089063
O       10.60613853       0.87438972       7.77055063        1      -0.00034564       0.00021694       0.00241161
C        7.57535186       2.62382028       9.96761120        2       0.00058526      -0.00014624      -0.00007574
Ti       7.57551175       4.37379931       8.69364514        0      -0.00065764      -0.00039535      -0.00334299
Ti       9.08610401       3.49762170      11.28761351        0      -0.00009459       0.00121930       0.00165165
O        7.57133278       4.37208021      12.23008024        3       0.00026843      -0.00003464      -0.12874848
O        9.09065170       3.49814471       7.77125272        1      -0.00012458       0.00047323       0.00242597
C        6.05990492       5.24840306       9.96755994        2       0.00085259       0.00055776      -0.00008103
Ti       6.05992151       6.99776714       8.69564287        0      -0.00002130      -0.00078455      -0.00345783
Ti       7.57137696       6.11979492      11.28862395        0       0.00014321      -0.00051530       0.00101364
O        6.06013570       6.99270108      12.23008024        3       0.00032452       0.00041816      -0.17278583
O        7.57470859       6.12347600       7.77139249        1       0.00034363      -0.00008615       0.00230157
C        4.54606868       7.87299426       9.96755989        2       0.00087203       0.00126427       0.00012279
Ti       4.54391364       9.62076679       8.69509706        0       0.00015867       0.00029657      -0.00290673
Ti       6.06037946       8.74903817      11.28155341        0       0.00003248      -0.00095357       0.00139445
O        4.54410355       9.62075663      12.23008024        3       0.00093929       0.00106977      -0.22050227
O        6.06013624       8.74813433       7.77034996        1       0.00009075      -0.00034478       0.00229727
C        0.04466310       0.06703411      15.27623409       10       0.00066007      -0.00046073       0.06029529
C        1.25760326       0.76737603      15.27623409       10       0.00221652       0.00107022       0.05699055
C       -1.16853261       2.16800919      15.27623409       10      -0.00138922      -0.00066349       0.02873628
C        0.04485802       2.86736763      15.27623409       10      -0.00177880       0.00000413       0.05497338
C       -2.38120864       4.26645562      15.27623409       10       0.00036897       0.00052944       0.05136016
C       -1.16795776       4.96581331      15.27623409       10       0.00103231       0.00044113       0.04742709
C       -3.59166976       6.36320588      15.27623409       10       0.00060990       0.00004883       0.05284639
C       -2.37926956       7.06414575      15.27623409       10       0.00030372      -0.00005246       0.05080091
C       -4.80234898       8.46207211      15.27623409       10      -0.00340417       0.00029859       0.02848454
C       -3.59019532       9.16335476      15.27623409       10      -0.00059574       0.00027890       0.05394766
C        2.47075725       0.06750169      15.27623409       10       0.00116123      -0.00015552       0.02898574
C        3.68267467       0.76817439      15.27623409       10       0.00076395      -0.00080974       0.06554322
C        1.25816271       2.16794944      15.27623409       10      -0.00140443       0.00066156       0.02945533
C        2.47082050       2.86736999      15.27623409       10      -0.00068759      -0.00087376       0.06810275
C        0.04476571       4.26732504      15.27623409       10       0.00035910       0.00011740       0.09833421
C        1.25753566       4.96597383      15.27623409       10       0.00059895      -0.00016239       0.04139720
C       -1.16728258       6.36500746      15.27623409       10      -0.00017942       0.00001790       0.11689169
C        0.04485073       7.06477372      15.27623409       10      -0.00045506      -0.00047934       0.05327755
C       -2.37787498       8.46347807      15.27623409       10      -0.00087650      -0.00058255       0.10377326
C       -1.16643457       9.16430267      15.27623409       10      -0.00052971      -0.00075160       0.04055107
C        4.89447140       0.06854205      15.27623409       10       0.00076953      -0.00038358       0.07173996
C        6.10498367       0.76894296      15.27623409       10       0.00046625       0.00001134       0.06438444
C        3.68382596       2.16826238      15.27623409       10      -0.00036817      -0.00112995       0.02443951
C        4.89433487       2.86742309      15.27623409       10      -0.00032257      -0.00079120       0.06612669
C        2.47095885       4.26675101      15.27623409       10      -0.00002578      -0.00085616       0.06180318
C        3.68269673       4.96494735      15.27623409       10      -0.00062711      -0.00003346       0.06571480
C        1.25691919       6.36515037      15.27623409       10       0.00010860       0.00019920       0.12173916
C        2.46888678       7.06434436      15.27623409       10       0.00024661       0.00038806       0.05129932
C        0.04499901       8.46420810      15.27623409       10      -0.00043142      -0.00094651       0.12543111
C        1.25647216       9.16422233      15.27623409       10      -0.00063441      -0.00066903       0.04741497
C        7.31555344       0.06848220      15.27623409       10       0.00035448      -0.00015362       0.07382169
C        8.52705631       0.76813424      15.27623409       10      -0.00005738       0.00077678       0.06213913
C        6.10525663       2.16830824      15.27623409       10       0.00029168      -0.00015043       0.02007453
C        7.31589869       2.86745164      15.27623409       10      -0.00009158      -0.00005898       0.07848599
C        4.89451222       4.26574532      15.27623409       10      -0.00090533      -0.00043675       0.01992550
C        6.10519216       4.96448788      15.27623409       10      -0.00021490      -0.00100428       0.08810959
C        3.68141203       6.36349496      15.27623409       10       0.00038773      -0.00002337       0.06565947
C        4.89306203       7.06283333      15.27623409       10       0.00122489      -0.00168082       0.06064431
C        2.46795254       8.46366403      15.27623409       10      -0.00071572      -0.00000040       0.11038635
C        3.68019803       9.16348681      15.27623409       10      -0.00174745      -0.00011788       0.05131685
C        9.73870016       0.06756342      15.27623409       10      -0.00063255      -0.00026880       0.03342108
C       10.95179582       0.76741499      15.27623409       10       0.00218711      -0.00064066       0.05786419
C        8.52612086       2.16808538      15.27623409       10      -0.00068685       0.00043516       0.02531942
C        9.73899215       2.86715649      15.27623409       10      -0.00076738       0.00033949       0.06676568
C        7.31586366       4.26558911      15.27623409       10      -0.00058917      -0.00056612       0.01868868
C        8.52721620       4.96477448      15.27623409       10      -0.00000770      -0.00008308       0.06973029
C        6.10484293       6.36210662      15.27623409       10       0.00180394      -0.00098690       0.02513433
C        7.31664747       7.06273940      15.27623409       10       0.00092574       0.00035736       0.06254190
C        4.89231895       8.46215744      15.27623409       10      -0.00294851      -0.00179474       0.03284244
C        6.10494633       9.16283023      15.27623409       10      -0.00190862      -0.00000386       0.05977463
