131
Lattice="12.12 0.0 0.0 -6.06 10.496227893867395 0.0 0.0 0.0 40.0" Properties=species:S:1:pos:R:3:tags:I:1:forces:R:3 stress="0.002903554407699512 -1.8299070444240336e-07 2.0192279589778543e-06 -1.8299070444240336e-07 0.002903170184886673 -2.8970643388110956e-07 2.0192279589778543e-06 -2.8970643388110956e-07 0.002221604675202314" energy=-1205.1148400032225 pbc="T T F"
C       -0.00024049       0.00023899      10.00519135        2       0.00059354      -0.00022026      -0.00103198
Ti       0.00053044       1.74905205       8.71333762        0       0.00053793       0.00018474       0.00046648
Ti       1.51597997       0.87593755      11.29576769        0       0.00028564      -0.00093825       0.00061002
O       -0.00140749       1.75011346      12.23008024        3       0.00070949       0.00002808       0.10422614
O        1.51637286       0.87217817       7.77796943        1      -0.00027970       0.00124854      -0.00083104
C       -1.51485382       2.62386446      10.00304844        2       0.00040300       0.00015918       0.00005019
Ti      -1.51500990       4.37422081       8.71468075        0       0.00039251       0.00013647       0.00058328
Ti       0.00067924       3.49890382      11.29320126        0       0.00043704       0.00024583      -0.00064197
O       -1.51460813       4.36859760      12.23008024        3       0.00040001       0.00022407       0.13085430
O       -0.00052308       3.49880645       7.77413034        1       0.00050075      -0.00007310       0.00067526
C       -3.02979301       5.24712689      10.00705746        2       0.00024911       0.00042133      -0.00131325
Ti      -3.03008348       6.99843881       8.72489543        0       0.00032169      -0.00013667      -0.00411549
Ti      -1.51363664       6.12319864      11.30478634        0      -0.00057718       0.00087624       0.00131493
O       -3.03203461       6.98862804      12.23008024        3      -0.00002356       0.00004680       0.09171092
O       -1.51629395       6.12539935       7.78041170        1       0.00102598      -0.00123829      -0.00138436
C       -4.54461129       7.87216242      10.01390626        2       0.00095240       0.00032605      -0.00310469
Ti      -4.54371551       9.62082248       8.72300915        0       0.00026608      -0.00004187      -0.00364880
Ti      -3.02655984       8.74525959      11.33928726        0       0.00036248      -0.00001489      -0.00305448
O       -4.55239111       9.62560082      12.23008024        3       0.00004143       0.00014278       0.13701804
O       -3.02906405       8.74655836       7.78627760        1       0.00000903       0.00002989      -0.00568663
C        3.03028897      -0.00017618      10.01437966        2       0.00033263      -0.00078592      -0.00323722
Ti       3.03025228       1.74974843       8.71529589        0       0.00037237      -0.00064712       0.00079996
Ti       4.54510305       0.87587701      11.29859042        0       0.00019173      -0.00129492       0.00080677
O        3.02995712       1.75374234      12.23008024        3       0.00039833      -0.00048937       0.12671492
O        4.54414418       0.87136556       7.77914990        1       0.00065395       0.00143535      -0.00114087
C        1.51498630       2.62473464      10.00358106        2       0.00078322      -0.00002589       0.00008791
Ti       1.51491175       4.37339497       8.71313408        0       0.00040074       0.00023216      -0.00072112
Ti       3.03033430       3.49984026      11.29308012        0       0.00036299      -0.00025658      -0.00031439
O        1.51553719       4.37331014      12.23008024        3       0.00034715       0.00003898       0.11276648
O        3.02979872       3.49686536       7.77397022        1       0.00020201       0.00084826       0.00043375
C        0.00064463       5.24728675      10.00516256        2       0.00029884       0.00046682      -0.00030478
Ti       0.00036580       6.99736448       8.71797379        0      -0.00025105       0.00024042       0.00043086
Ti       1.51655947       6.12204844      11.29309455        0       0.00019682      -0.00000189      -0.00027001
O        0.00483141       6.99437063      12.23008024        3      -0.00008669       0.00016175       0.09091463
O        1.51271427       6.12415359       7.77515432        1       0.00120097      -0.00058028       0.00039483
C       -1.51517977       7.87231359      10.01767603        2      -0.00032449       0.00036690      -0.00349256
Ti      -1.51581582       9.62121756       8.72540470        0       0.00039462      -0.00004881      -0.00442644
Ti       0.00013470       8.74563428      11.30579987        0      -0.00084627       0.00030399       0.00128870
O       -1.50891699       9.62743913      12.23008024        3      -0.00004889       0.00011373       0.08807390
O       -0.00295301       8.74689584       7.78074032        1       0.00169573      -0.00014501      -0.00155155
C        6.06097298       0.00051963      10.00774435        2      -0.00013396      -0.00028487      -0.00145591
Ti       6.05970972       1.74914366       8.71421144        0      -0.00012346       0.00006742       0.00061058
Ti       7.57523098       0.87523106      11.29389728        0       0.00018590      -0.00012160      -0.00032040
O        6.06287995       1.75220465      12.23008024        3      -0.00005143       0.00006136       0.12284249
O        7.57435188       0.87405489       7.77442645        1       0.00053845       0.00023096       0.00035418
C        4.54534292       2.62546488      10.00356467        2      -0.00016026      -0.00013971      -0.00012895
Ti       4.54531335       4.37333426       8.71285808        0       0.00009893       0.00003923      -0.00155948
Ti       6.05977015       3.49918210      11.29356571        0      -0.00007672       0.00005073      -0.00067113
O        4.54510389       4.37377881      12.23008024        3       0.00040400      -0.00028112       0.11305187
O        6.06080304       3.49821613       7.77389485        1       0.00001624       0.00017862       0.00067774
C        3.03053630       5.24798917      10.00210940        2       0.00040461      -0.00010608       0.00052042
Ti       3.03003018       6.99767358       8.71313567        0       0.00007292      -0.00026394      -0.00083425
Ti       4.54454789       6.12243594      11.29308493        0       0.00042802      -0.00019919      -0.00030908
O        3.03077051       6.99716884      12.23008024        3       0.00021253      -0.00019083       0.11414005
O        4.54644136       6.12394801       7.77380314        1      -0.00043927      -0.00036949       0.00048553
C        1.51599687       7.87209500      10.00531377        2      -0.00017812      -0.00028194      -0.00034189
Ti       1.51429184       9.62122912       8.71502730        0       0.00018044      -0.00026820       0.00049209
Ti       3.03010997       8.74633330      11.29321200        0       0.00018418      -0.00043743      -0.00062133
O        1.51948554       9.62378399      12.23008024        3       0.00018011      -0.00015538       0.13558682
O        3.02955708       8.74747155       7.77422750        1       0.00048653      -0.00029650       0.00066487
C        9.09023970       0.00012840      10.00312878        2       0.00018519      -0.00028020      -0.00002558
Ti       9.09001102       1.74936469       8.71260111        0       0.00018509       0.00000831      -0.00095259
Ti      10.60519254       0.87457392      11.29372723        0       0.00017575       0.00000968      -0.00034945
O        9.09063801       1.74956654      12.23008024        3       0.00017902       0.00005489       0.12742642
O       10.60562176       0.87439817       7.77356487        1       0.00005555       0.00004663       0.00036618
C        7.57526191       2.62404519      10.00294427        2      -0.00005862       0.00012395       0.00005007
Ti       7.57515948       4.37384216       8.71386156        0      -0.00002847       0.00027528       0.00073684
Ti       9.08982579       3.49854309      11.29376304        0       0.00029430       0.00004228      -0.00026718
O        7.57452728       4.37049653      12.23008024        3       0.00002293       0.00022398       0.11347732
O        9.09030736       3.49955337       7.77417906        1       0.00013183      -0.00036896       0.00045213
C        6.05909330       5.24737278      10.00324327        2       0.00002797       0.00029994       0.00003268
Ti       6.05983340       6.99721038       8.71491393        0       0.00087239       0.00019549       0.00095907
Ti       7.57398602       6.12227764      11.29735181        0       0.00121658       0.00054812       0.00087558
O        6.05716220       6.99613530      12.23008024        3       0.00082582       0.00019025       0.12609214
O        7.57746436       6.12528075       7.77866504        1      -0.00082229      -0.00108361      -0.00085258
C        4.54444520       7.87197379      10.00336067        2       0.00050939      -0.00055768       0.00019241
Ti       4.54550628       9.62130575       8.71329909        0       0.00024602      -0.00040534       0.00051975
Ti       6.05942041       8.74564169      11.29544837        0       0.00107524       0.00031813       0.00064697
O        4.54333185       9.62222499      12.23008024        3       0.00035060      -0.00042901       0.12570973
O        6.06293729       8.74717886       7.77778750        1      -0.00113049      -0.00033303      -0.00068469
C        0.04120104       0.06966979      17.08483080       10       0.00598571       0.00093448      -0.00481254
C        1.25180252       0.76912042      17.06953875       10      -0.00055369      -0.00148086       0.01684920
C       -1.16882408       2.16797186      17.09015150       10      -0.00179407       0.00177186      -0.02955863
C        0.04310181       2.86782033      17.07244107       10      -0.00113213       0.00106588      -0.01727252
C       -2.38073336       4.26532188      17.08483080       10      -0.00424660       0.00144846       0.00010272
C       -1.16984665       4.96423015      17.06953875       10      -0.00095748       0.00072138       0.01720547
C       -3.58797338       6.36793328      17.02172005       10      -0.00313302       0.00114547      -0.02283138
C       -2.38105519       7.05049335      16.97989783       10       0.00063804      -0.00104579      -0.48662455
C       -4.80143128       8.46921838      17.02172005       10       0.00300101      -0.00024864      -0.02633465
C       -3.60698226       9.17352233      16.97989783       10      -0.00142010      -0.00157617      -0.46082287
C        2.46561146       0.06390944      17.02172005       10       0.00263933      -0.00249013      -0.02240750
C        3.67901953       0.76672637      16.98964137       10       0.00337415       0.00224734       0.17528499
C        1.25468420       2.16735542      17.05849578       10       0.00051974      -0.00068216      -0.03125283
C        2.46690081       2.86647229      17.03658137       10      -0.00036061       0.00081007      -0.03971901
C        0.04241870       4.26724432      17.05849578       10       0.00022853      -0.00088888      -0.02392367
C        1.25420507       4.96714676      17.03658137       10      -0.00220437       0.00039562      -0.05369605
C       -1.17392254       6.36808615      17.02172005       10       0.00112957       0.00147263      -0.03298743
C        0.04174253       7.06705071      16.98964137       10      -0.00039112      -0.00144293       0.16337890
C       -2.38148766       8.46597752      16.52709217       10       0.00126155      -0.00247307       0.20939825
C       -1.15539055       9.17335785      16.97989783       10       0.00044206       0.00237902      -0.48424356
C        4.89216544       0.06371731      17.02172005       10      -0.00039397      -0.00354408      -0.01780794
C        6.10612135       0.76873702      17.06953875       10       0.00047546       0.00194630       0.00660952
C        3.67933397       2.16398216      17.02197508       10      -0.00231428       0.00155103      -0.10073348
C        4.89185482       2.86631545      17.03658137       10      -0.00152776       0.00060827      -0.04520478
C        2.46666543       4.26657689      17.03389976       10      -0.00227498       0.00015281      -0.00585645
C        3.67944029       4.96670006      17.02889899       10      -0.00118492       0.00146615      -0.05497680
C        1.25191037       6.36832686      17.02197508       10       0.00028894      -0.00013974      -0.09964715
C        2.46652200       7.06694591      17.03658137       10       0.00066331       0.00126186      -0.05593892
C        0.03923747       8.46926183      17.02172005       10      -0.00095355      -0.00197648      -0.03015202
C        1.25706833       9.16760830      17.06953875       10      -0.00057583       0.00434803       0.01155264
C        7.31674736       0.06950382      17.08483080       10      -0.00167920      -0.00205889      -0.00104155
C        8.52811935       0.76887398      17.09176932       10      -0.00053966       0.00106209      -0.01512491
C        6.10377349       2.16698389      17.05849578       10      -0.00153413       0.00312597      -0.03596633
C        7.31530627       2.86754104      17.07244107       10      -0.00275457      -0.00094145      -0.01177809
C        4.89219598       4.26648205      17.03389976       10      -0.00102588       0.00145993      -0.02019660
C        6.10465411       4.96683678      17.03658137       10      -0.00246197       0.00109648      -0.04877461
C        3.67943446       6.36713932      17.03389976       10      -0.00175810      -0.00014296      -0.01201019
C        4.89207853       7.06687746      17.03658137       10      -0.00086973       0.00123103      -0.04040958
C        2.46683780       8.46628939      17.05849578       10      -0.00308199      -0.00151310      -0.02567465
C        3.67907767       9.16524409      17.07244107       10      -0.00028765       0.00268974      -0.01601007
C        9.73904708       0.06851299      17.09015150       10       0.00196990      -0.00027116      -0.02474655
C       10.94986161       0.76909088      17.09176932       10      -0.00105156      -0.00189724      -0.01817262
C        8.52718498       2.16777774      17.09015150       10      -0.00316689       0.00242881      -0.02944491
C        9.73910533       2.86650387      17.09176932       10       0.00227700      -0.00131201      -0.01373922
C        7.31628597       4.26700382      17.05849578       10      -0.00240471       0.00032277      -0.04275080
C        8.52832784       4.96408235      17.06953875       10       0.00233963      -0.00080016       0.00451433
C        6.10664207       6.36813126      17.02197508       10      -0.00124022      -0.00227423      -0.09706573
C        7.31657181       7.06697731      16.98964137       10       0.00035489      -0.00241664       0.17636201
C        4.89148655       8.46625562      17.05849578       10       0.00145303      -0.00055073      -0.02923362
C        6.10096022       9.16780983      17.06953875       10      -0.00288403      -0.00254037       0.02074526
O       -2.38470487       8.46849398      15.17234251       11       0.00369116      -0.00188601      -0.00059855
