131
Lattice="12.12 0.0 0.0 -6.06 10.496227893867395 0.0 0.0 0.0 40.0" Properties=species:S:1:pos:R:3:tags:I:1:forces:R:3 stress="0.0029325613338785496 -3.3580854835924585e-06 2.123485302300304e-06 -3.3580854835924585e-06 0.0029280183087885114 3.112247231135188e-06 2.123485302300304e-06 3.112247231135188e-06 0.0025407349913247144" energy=-1206.0739354633697 pbc="T T F"
C       -0.00011883       0.00056419      10.00608384        2       0.00075489       0.00001839       0.00332186
Ti       0.00096652       1.74908482       8.71654261        0       0.00025304       0.00011674       0.00056718
Ti       1.51556661       0.87721054      11.30598467        0       0.00054039       0.00263655      -0.00574939
O       -0.00217859       1.75083174      12.23008024        3       0.00026071      -0.00080627       0.04644893
O        1.51841855       0.87077602       7.78512193        1       0.00016633       0.00050617      -0.00282567
C       -1.51446744       2.62395157      10.00366657        2       0.00053826       0.00032529       0.00204475
Ti      -1.51487596       4.37483830       8.72054081        0      -0.00001245       0.00080062       0.00030539
Ti       0.00079980       3.49875896      11.30362810        0       0.00122292       0.00121320      -0.00257843
O       -1.51393837       4.36451659      12.23008024        3      -0.00040949       0.00178244       0.06994606
O       -0.00078522       3.49967113       7.77989310        1       0.00048520       0.00066414      -0.00151617
C       -3.02998486       5.24582616      10.00948503        2       0.00022525       0.00102050       0.00368403
Ti      -3.03013442       6.99887010       8.73601404        0       0.00021798       0.00010069      -0.00113982
Ti      -1.51686786       6.12440173      11.32009317        0       0.00252567      -0.00253951      -0.00656784
O       -3.04070350       6.96910632      12.23008024        3       0.00152027       0.00645915      -0.19091054
O       -1.51644148       6.12854844       7.79030980        1       0.00076349       0.00045262      -0.00268649
C       -4.54099417       7.87444125      10.02338900        2      -0.00099811      -0.00013305       0.00202094
Ti      -4.54279703       9.62070089       8.73052816        0       0.00043651       0.00031344      -0.00121018
Ti      -3.02843658       8.74732979      11.35645874        0       0.00052958       0.00027445      -0.00891975
O       -4.55907542       9.63043888      12.23008024        3       0.00312079      -0.00142706       0.05608217
O       -3.02729837       8.74592253       7.79496566        1       0.00037649       0.00027256      -0.00474323
C        3.03081332      -0.00320710      10.02330081        2       0.00004210       0.00150490       0.00211778
Ti       3.03062264       1.75073594       8.72031276        0      -0.00000801       0.00097000       0.00051271
Ti       4.54620469       0.87848719      11.30930498        0       0.00069359       0.00424245      -0.00646298
O        3.02718437       1.75627779      12.23008024        3       0.00071196      -0.00131467       0.05133011
O        4.54337290       0.86958953       7.78685205        1       0.00027477       0.00074925      -0.00265013
C        1.51529308       2.62529098      10.00456122        2      -0.00079095      -0.00056949       0.00206196
Ti       1.51476394       4.37324734       8.71722742        0       0.00067833       0.00015099       0.00016516
Ti       3.03009116       3.50087585      11.30283357        0       0.00009590       0.00059834      -0.00233918
O        1.51489324       4.37221127      12.23008024        3       0.00054065       0.00061976       0.03754641
O        3.02937262       3.49624858       7.77952572        1       0.00042539       0.00054688      -0.00131331
C        0.00046894       5.24772734      10.00873624        2      -0.00057192       0.00010460       0.00232174
Ti       0.00109299       6.99736125       8.72655416        0       0.00091145      -0.00001970       0.00075356
Ti       1.51691571       6.12191972      11.30216135        0       0.00006280       0.00018429      -0.00346204
O        0.00833759       6.99267971      12.23008024        3      -0.00167137       0.00163112       0.05262130
O        1.51060763       6.12580255       7.78236402        1       0.00072773       0.00019208      -0.00169762
C       -1.51765177       7.87463376      10.03346452        2       0.00092841      -0.00004801       0.00180115
Ti      -1.51567243       9.62190070       8.73565714        0       0.00052920       0.00063513      -0.00142451
Ti      -0.00199315       8.74925567      11.32022596        0       0.00398369      -0.00055457      -0.00659743
O       -1.49208624       9.64898145      12.23008024        3      -0.00540022      -0.00467371      -0.26964718
O       -0.00516187       8.74596164       7.79015641        1       0.00041912      -0.00007690      -0.00264795
C        6.06304747       0.00231490      10.00916602        2      -0.00038216      -0.00005683       0.00384877
Ti       6.06022135       1.74927227       8.71805856        0       0.00076143       0.00034239      -0.00013522
Ti       7.57749362       0.87729408      11.30295632        0      -0.00084133       0.00026017      -0.00307542
O        6.06634701       1.75459670      12.23008024        3      -0.00029346      -0.00074947       0.03719016
O        7.57437582       0.87396351       7.77941724        1       0.00061882       0.00049177      -0.00141915
C        4.54552561       2.62762074      10.00439436        2       0.00050893      -0.00104605       0.00175368
Ti       4.54541476       4.37357076       8.71595747        0       0.00016381       0.00061210      -0.00082465
Ti       6.05910016       3.50018164      11.30174858        0       0.00034100       0.00027680      -0.00160024
O        4.54435393       4.37435793      12.23008024        3       0.00030839       0.00064230       0.01872944
O        6.06139769       3.49852634       7.77894067        1      -0.00013682       0.00054037      -0.00117666
C        3.03027648       5.24831337      10.00342156        2       0.00029552       0.00059511       0.00056968
Ti       3.03031313       6.99827124       8.71735310        0       0.00082454       0.00014240       0.00019339
Ti       4.54372178       6.12242542      11.30264795        0      -0.00009655      -0.00006895      -0.00256868
O        3.03098465       6.99812747      12.23008024        3       0.00030201       0.00024490       0.03508500
O        4.54724637       6.12532194       7.77961536        1       0.00032977       0.00038779      -0.00125907
C        1.51611779       7.87265413      10.00896756        2       0.00013469       0.00127985       0.00236177
Ti       1.51431807       9.62150372       8.72058509        0      -0.00015791       0.00046250       0.00025806
Ti       3.03070749       8.74674521      11.30381726        0       0.00009695      -0.00059062      -0.00275859
O        1.52412216       9.62618809      12.23008024        3      -0.00132190       0.00013050       0.06607236
O        3.02924097       8.74758507       7.78006013        1       0.00008880       0.00014827      -0.00151253
C        9.09093388       0.00035604      10.00384344        2       0.00046903       0.00012480       0.00197277
Ti       9.09070524       1.74951038       8.71489272        0       0.00004544       0.00038292       0.00091901
Ti      10.60611007       0.87488967      11.30204498        0       0.00039029       0.00051152      -0.00341591
O        9.09308153       1.74853872      12.23008024        3       0.00052691       0.00009188       0.04465197
O       10.60621844       0.87428947       7.77810458        1       0.00011626       0.00045413      -0.00113164
C        7.57581132       2.62434840      10.00393961        2       0.00095473       0.00002008       0.00121649
Ti       7.57557534       4.37412795       8.71802939        0       0.00059264      -0.00017611       0.00010321
Ti       9.08959254       3.49718459      11.30320970        0      -0.00001283       0.00119298      -0.00322954
O        7.57475795       4.36789652      12.23008024        3       0.00075374       0.00107175       0.04129133
O        9.09062768       3.50050165       7.77948916        1       0.00033726       0.00002614      -0.00139953
C        6.05779645       5.24701227      10.00441304        2       0.00153841       0.00098554       0.00190473
Ti       6.05946541       6.99695825       8.72047388        0      -0.00025374       0.00035178       0.00086024
Ti       7.57293752       6.12128880      11.30883100        0      -0.00212981      -0.00169226      -0.00658410
O        6.05328296       6.99699041      12.23008024        3       0.00176353       0.00095044       0.04592725
O        7.57905485       6.12769765       7.78709805        1       0.00007364       0.00017378      -0.00281517
C        4.54446550       7.87200192      10.00487035        2       0.00070555       0.00170739       0.00229360
Ti       4.54608245       9.62139997       8.71691017        0       0.00031268       0.00075869       0.00073287
Ti       6.05897394       8.74634000      11.30656005        0      -0.00115525      -0.00087334      -0.00591678
O        4.54362376       9.62414581      12.23008024        3       0.00093960       0.00058306       0.05608001
O        6.06549576       8.74650278       7.78527624        1       0.00020283       0.00051286      -0.00291695
C        0.04140930       0.06919761      16.34636926       10      -0.00611002      -0.00244765      -0.01056893
C        1.25204993       0.76857413      16.33107721       10       0.00213286       0.00185331       0.03246982
C       -1.16881206       2.16773323      16.35168996       10      -0.00008048      -0.00336706      -0.02374599
C        0.04320122       2.86753399      16.33397953       10      -0.00079966      -0.00050122       0.01017139
C       -2.38088750       4.26485892      16.34636926       10       0.00223356      -0.00182637       0.02348763
C       -1.17001161       4.96366706      16.33107721       10       0.00073806      -0.00151613       0.03076342
C       -3.58793106       6.36722604      16.28325851       10       0.00352249      -0.00346090       0.00409625
C       -2.38125173       7.04901470      16.24143629       10       0.00093443      -0.00214047      -0.40613186
C       -4.80066931       8.46856039      16.28325851       10      -0.00524560      -0.00133697      -0.00768564
C       -3.60733874       9.17312674      16.24143629       10       0.00116748       0.00090815      -0.41185456
C        2.46633412       0.06277714      16.28325851       10      -0.00377996       0.00250412      -0.00907369
C        3.67927321       0.76685403      16.25117983       10      -0.00225475      -0.00573297       0.18886524
C        1.25491697       2.16696234      16.32003424       10      -0.00227056      -0.00033010      -0.02637601
C        2.46689434       2.86642187      16.29811983       10      -0.00003265      -0.00247891      -0.02045571
C        0.04235943       4.26721483      16.32003424       10      -0.00040291      -0.00166719      -0.00147546
C        1.25399423       4.96699249      16.29811983       10       0.00067221      -0.00076035      -0.02475342
C       -1.17397700       6.36772477      16.28325851       10      -0.00002447      -0.00459563       0.01482683
C        0.04203740       7.06620577      16.25117983       10      -0.00054442       0.00208769       0.17818895
C       -2.38259317       8.46416955      15.78863063       10      -0.00103683       0.00136832       0.68382844
C       -1.15618621       9.17246327      16.24143629       10      -0.00006720      -0.00229797      -0.45787807
C        4.89185705       0.06235407      16.28325851       10       0.00106097       0.00555300       0.00665738
C        6.10587875       0.76811052      16.33107721       10       0.00000469      -0.00219329       0.03724860
C        3.67928225       2.16411165      16.28351354       10      -0.00053728      -0.00289796      -0.06846814
C        4.89156365       2.86624649      16.29811983       10      -0.00167351      -0.00094236      -0.02090687
C        2.46634506       4.26657229      16.29543822       10       0.00059190      -0.00120095       0.02488409
C        3.67893823       4.96669190      16.29043745       10      -0.00100954      -0.00087258      -0.01984523
C        1.25191406       6.36792723      16.28351354       10      -0.00071367      -0.00074039      -0.05337929
C        2.46620264       7.06656571      16.29811983       10      -0.00254703      -0.00043170      -0.02570138
C        0.03832290       8.46865522      16.28325851       10       0.00011359       0.00222579       0.01998757
C        1.25653593       9.16737083      16.33107721       10      -0.00180180      -0.00561622       0.02526049
C        7.31645927       0.06913476      16.34636926       10       0.00135162       0.00347751       0.02550028
C        8.52789671       0.76870534      16.35330778       10       0.00042513      -0.00077820       0.00533278
C        6.10338500       2.16641508      16.32003424       10      -0.00310664      -0.00173439      -0.01291064
C        7.31502884       2.86702266      16.33397953       10      -0.00031677       0.00153867       0.01521010
C        4.89170570       4.26648856      16.29543822       10      -0.00284746      -0.00038552       0.01294110
C        6.10420392       4.96675665      16.29811983       10       0.00086177       0.00014246      -0.02200762
C        3.67893907       6.36688410      16.29543822       10      -0.00031495       0.00050133       0.02257763
C        4.89172160       7.06654572      16.29811983       10       0.00136017      -0.00032107      -0.02003491
C        2.46602887       8.46569732      16.32003424       10       0.00072622       0.00235930       0.00294889
C        3.67862723       9.16489330      16.33397953       10      -0.00072332      -0.00226980       0.01366203
C        9.73871079       0.06818295      16.35168996       10      -0.00213937      -0.00027420      -0.01571510
C       10.94982059       0.76863431      16.35330778       10       0.00305212       0.00243457       0.00280818
C        8.52705415       2.16757063      16.35168996       10      -0.00098393      -0.00327516      -0.00693587
C        9.73918749       2.86607322      16.35330778       10      -0.00458568       0.00249137       0.00173926
C        7.31592656       4.26666744      16.32003424       10      -0.00120524      -0.00148200      -0.01339383
C        8.52826259       4.96331961      16.33107721       10      -0.00355923      -0.00003812       0.03174231
C        6.10615554       6.36773946      16.28351354       10       0.00100490       0.00129488      -0.07017154
C        7.31634386       7.06612416      16.25117983       10       0.00114955       0.00320390       0.18136980
C        4.89127689       8.46579444      16.32003424       10      -0.00455380      -0.00052852      -0.01938358
C        6.10094388       9.16720029      16.33107721       10       0.00301709       0.00227722       0.03773053
O       -2.39037247       8.45379837      14.44623469       11       0.00633218      -0.00390645       0.00571503
