130
Lattice="12.12 0.0 0.0 -6.06 10.496227893867395 0.0 0.0 0.0 40.0" Properties=species:S:1:pos:R:3:tags:I:1:forces:R:3 energy=-1201.7301792394042 stress="0.002894787143206604 -1.3901284861301398e-07 5.512636451272714e-08 -1.3901284861301398e-07 0.0028949952144888434 -1.3248959482584842e-07 5.512636451272714e-08 -1.3248959482584842e-07 0.002333798805269903" pbc="T T F"
C        0.00002031       0.00002780      10.00329774        2      -0.00002346      -0.00008736       0.00471459
Ti      -0.00001136       1.74944292       8.71261187        0       0.00003644       0.00006790       0.00485378
Ti       1.51506052       0.87471186      11.29514036        0       0.00026406       0.00038412       0.00144270
O       -0.00017799       1.74999973      12.23008024        3      -0.00012394      -0.00013602       0.10338209
O        1.51493691       0.87465368       7.77352734        1      -0.00004041      -0.00002180       0.00450744
C       -1.51500049       2.62404095      10.00292481        2      -0.00006141      -0.00013851       0.00448677
Ti      -1.51502017       4.37346948       8.71271557        0       0.00005142      -0.00003359       0.00458323
Ti      -0.00001643       3.49875243      11.29495513        0       0.00027457       0.00043821       0.00169564
O       -1.51541611       4.37338199      12.23008024        3      -0.00014417      -0.00005074       0.09247033
O        0.00002426       3.49868658       7.77351833        1       0.00001178      -0.00001121       0.00454304
C       -3.02995638       5.24814183      10.00283278        2      -0.00006477      -0.00000121       0.00428658
Ti      -3.02998843       6.99745272       8.71269069        0       0.00004672      -0.00004687       0.00462456
Ti      -1.51525558       6.12267958      11.29533186        0       0.00029120      -0.00004364       0.00169925
O       -3.03033796       6.99735654      12.23008024        3      -0.00012843       0.00002876       0.09485716
O       -1.51496840       6.12280551       7.77349804        1       0.00005482       0.00002439       0.00450006
C       -4.54501763       7.87214483      10.00285011        2      -0.00003088       0.00009305       0.00461548
Ti      -4.54494432       9.62147829       8.71261834        0      -0.00000176       0.00006284       0.00486621
Ti      -3.03007302       8.74683696      11.29496235        0       0.00026672      -0.00007802       0.00124799
O       -4.54471708       9.62102804      12.23008024        3      -0.00005667      -0.00002342       0.09838057
O       -3.03002871       8.74690357       7.77350298        1       0.00000442      -0.00000562       0.00443801
C        3.02993057       0.00003407      10.00300186        2      -0.00010592      -0.00016180       0.00451364
Ti       3.03005708       1.74939841       8.71271126        0       0.00002865       0.00006385       0.00454433
Ti       4.54506322       0.87480495      11.29523675        0       0.00008315       0.00017924       0.00161795
O        3.03050304       1.74965805      12.23008024        3      -0.00003275      -0.00016511       0.09045891
O        4.54495061       0.87463750       7.77349506        1      -0.00005736      -0.00008295       0.00439741
C        1.51500932       2.62400528      10.00301937        2      -0.00012298      -0.00019827       0.00431913
Ti       1.51502633       4.37348087       8.71276048        0       0.00004933      -0.00002300       0.00441387
Ti       3.03021447       3.49871593      11.29516338        0       0.00003002       0.00026130       0.00195263
O        1.51550173       4.37342593      12.23008024        3      -0.00007685      -0.00006485       0.09093511
O        3.02994024       3.49872075       7.77349682        1      -0.00008028      -0.00006377       0.00443439
C        0.00002194       5.24816031      10.00295635        2      -0.00012281      -0.00002927       0.00428773
Ti       0.00000408       6.99748084       8.71278458        0       0.00007424      -0.00003839       0.00463025
Ti       1.51525020       6.12269303      11.29533571        0       0.00010956      -0.00019415       0.00189354
O        0.00000866       6.99734841      12.23008024        3      -0.00006206       0.00003704       0.11031689
O        1.51498519       6.12279267       7.77350734        1      -0.00002476       0.00001555       0.00457611
C       -1.51494706       7.87215119      10.00292940        2      -0.00017367       0.00003366       0.00446574
Ti      -1.51495095       9.62153036       8.71273595        0       0.00004832       0.00000708       0.00461952
Ti      -0.00000070       8.74705115      11.29529790        0       0.00008970      -0.00019562       0.00174692
O       -1.51487647       9.62178777      12.23008024        3      -0.00013254      -0.00009236       0.09250621
O       -0.00000519       8.74684393       7.77348876        1       0.00000402      -0.00004231       0.00456386
C        6.06000832      -0.00010204      10.00286893        2       0.00002543      -0.00004222       0.00432100
Ti       6.06000156       1.74935942       8.71260546        0      -0.00001790      -0.00000276       0.00429468
Ti       7.57496045       0.87483537      11.29517361        0      -0.00029114      -0.00003173       0.00151045
O        6.05996107       1.74946311      12.23008024        3       0.00008869      -0.00005591       0.08909544
O        7.57503178       0.87463967       7.77346853        1       0.00006416      -0.00007642       0.00435647
C        4.54502801       2.62403461      10.00275295        2       0.00003000      -0.00014857       0.00401985
Ti       4.54500853       4.37342760       8.71258150        0      -0.00002075      -0.00006491       0.00414398
Ti       6.06002718       3.49869720      11.29453219        0      -0.00033791       0.00001707       0.00168881
O        4.54525720       4.37322047      12.23008024        3       0.00005821       0.00001851       0.08689041
O        6.05999716       3.49872803       7.77335666        1      -0.00000015      -0.00008058       0.00414943
C        3.02998015       5.24814992      10.00287435        2       0.00005407       0.00004859       0.00402964
Ti       3.02999936       6.99745348       8.71272282        0      -0.00001552      -0.00004754       0.00442659
Ti       4.54517464       6.12264481      11.29503674        0      -0.00030054      -0.00043783       0.00172096
O        3.03034979       6.99737542      12.23008024        3       0.00013527       0.00009768       0.09559295
O        4.54498002       6.12281807       7.77345298        1      -0.00001376       0.00005831       0.00429344
C        1.51497006       7.87214525      10.00292882        2       0.00006557       0.00009470       0.00430946
Ti       1.51496693       9.62153854       8.71271489        0       0.00001368      -0.00004627       0.00463235
Ti       3.03009824       8.74688823      11.29494499        0      -0.00026586      -0.00043060       0.00152713
O        1.51495687       9.62175926      12.23008024        3       0.00007276      -0.00000165       0.09397361
O        3.03003305       8.74688061       7.77349540        1       0.00002310       0.00000252       0.00449125
C        9.09003655       0.00001455      10.00293617        2       0.00014832       0.00002485       0.00450242
Ti       9.08995550       1.74939129       8.71267882        0      -0.00004137       0.00000486       0.00467422
Ti      10.60489535       0.87474952      11.29522292        0      -0.00004472       0.00018509       0.00128365
O        9.08961282       1.74965047      12.23008024        3       0.00008247      -0.00002908       0.08884406
O       10.60508792       0.87464330       7.77352237        1       0.00004444      -0.00000366       0.00446500
C        7.57497917       2.62401437      10.00274562        2       0.00012071      -0.00005906       0.00413269
Ti       7.57499157       4.37342314       8.71252855        0      -0.00004657      -0.00009729       0.00426067
Ti       9.08981452       3.49872859      11.29501799        0      -0.00006906       0.00021434       0.00142458
O        7.57476167       4.37320364      12.23008024        3       0.00001187       0.00001193       0.08639468
O        9.09004871       3.49873072       7.77345840        1       0.00011127      -0.00005827       0.00427809
C        6.05999377       5.24807985      10.00275402        2       0.00013981       0.00009031       0.00400125
Ti       6.06000305       6.99743895       8.71266778        0      -0.00004833      -0.00007243       0.00450364
Ti       7.57490399       6.12262035      11.29495368        0      -0.00001939      -0.00035312       0.00130605
O        6.06009328       6.99706000      12.23008024        3       0.00016472       0.00012015       0.09055849
O        7.57501715       6.12281717       7.77343768        1       0.00004725       0.00006454       0.00418562
C        4.54502207       7.87215207      10.00288032        2       0.00022461       0.00018792       0.00444574
Ti       4.54493601       9.62148697       8.71263557        0      -0.00000696       0.00002045       0.00487532
Ti       6.06000701       8.74668171      11.29526561        0      -0.00002746      -0.00022641       0.00112545
O        4.54468324       9.62120012      12.23008024        3       0.00016611       0.00003152       0.09717601
O        6.06000287       8.74695405       7.77351793        1       0.00000663       0.00003761       0.00438444
C        0.04518095       0.06750790      16.75315716       10      -0.00201518       0.00027901      -0.02221003
C        1.25726106       0.76727370      16.75315716       10      -0.00830116      -0.00245310      -0.04511115
C       -1.16719348       2.16682708      16.75315716       10       0.00251012       0.00289189      -0.02437554
C        0.04474375       2.86660765      16.75315716       10       0.00243020      -0.00216054      -0.03559053
C       -2.37896225       4.26623261      16.75315716       10      -0.00169247       0.00122566      -0.04042924
C       -1.16690009       4.96583564      16.75315716       10       0.00018490      -0.00066116      -0.04072049
C       -3.59054804       6.36522670      16.75315716       10      -0.00517600       0.00345924      -0.04083564
C       -2.37865467       7.06503194      16.75315716       10      -0.00197836      -0.00240394      -0.03985573
C       -4.80307585       8.46449059      16.75315716       10       0.00424820       0.00162365      -0.02608436
C       -3.59103261       9.16416913      16.75315716       10       0.00039554      -0.00014669      -0.03510780
C        2.46925823       0.06738831      16.75315716       10      -0.00110934      -0.00078521      -0.02944922
C        3.68126793       0.76724078      16.75315716       10      -0.00668844       0.00012210      -0.04247537
C        1.25667868       2.16682419      16.75315716       10       0.00524312       0.00152422      -0.02566451
C        2.46878885       2.86654934      16.75315716       10      -0.00107839       0.00047527      -0.03988026
C        0.04503555       4.26613693      16.75315716       10      -0.00140815      -0.00010989      -0.03164978
C        1.25707169       4.96575100      16.75315716       10      -0.00311188       0.00315123      -0.04292135
C       -1.16655839       6.36532306      16.75315716       10      -0.00395468       0.00217917      -0.02576021
C        0.04534790       7.06500396      16.75315716       10      -0.00220060       0.00135153      -0.02994176
C       -2.37898798       8.46442578      16.75315716       10       0.00324195       0.00135301      -0.03239068
C       -1.16706032       9.16412724      16.75315716       10       0.00225128       0.00380633      -0.04190389
C        4.89331082       0.06740140      16.75315716       10      -0.00355009      -0.00145769      -0.03844815
C        6.10505607       0.76752148      16.75315716       10      -0.00019480      -0.00155775      -0.02112495
C        3.68066945       2.16671040      16.75315716       10       0.00421496       0.00033654      -0.04028425
C        4.89255669       2.86663779      16.75315716       10       0.00479518       0.00008755      -0.02699512
C        2.46893392       4.26618961      16.75315716       10       0.00090175      -0.00291121      -0.04106705
C        3.68098859       4.96581755      16.75315716       10      -0.00103736       0.00300251      -0.01997887
C        1.25725742       6.36530513      16.75315716       10      -0.00482871       0.00003814      -0.02655089
C        2.46913707       7.06517103      16.75315716       10      -0.00420165      -0.00027466      -0.03918632
C        0.04495745       8.46442099      16.75315716       10       0.00016731       0.00155238      -0.02787688
C        1.25677735       9.16434954      16.75315716       10       0.00353862       0.00142227      -0.03977057
C        7.31701088       0.06765619      16.75315716       10      -0.00228123      -0.00383850      -0.03528043
C        8.52912217       0.76745222      16.75315716       10      -0.00322378      -0.00132768      -0.04317233
C        6.10467572       2.16700875      16.75315716       10       0.00217500      -0.00134366      -0.04145490
C        7.31673457       2.86666009      16.75315716       10       0.00398083      -0.00210131      -0.02469078
C        4.89285834       4.26616087      16.75315716       10       0.00303950      -0.00301143      -0.04238026
C        6.10491708       4.96584874      16.75315716       10       0.00140525       0.00020320      -0.02452063
C        3.68101078       6.36536447      16.75315716       10       0.00104867      -0.00035699      -0.03742160
C        4.89324328       7.06503392      16.75315716       10      -0.00527010      -0.00150588      -0.03989518
C        2.46861870       8.46459698      16.75315716       10       0.00668218      -0.00004456      -0.03190483
C        3.68069993       9.16425316      16.75315716       10       0.00105092       0.00080213      -0.03561108
C        9.74103510       0.06747739      16.75315716       10      -0.00040348       0.00013793      -0.03225110
C       10.95315313       0.76729562      16.75315716       10      -0.00428484      -0.00152469      -0.04348663
C        8.52877492       2.16684910      16.75315716       10       0.00193172       0.00239517      -0.04297481
C        9.74072080       2.86667305      16.75315716       10       0.00518666      -0.00333573      -0.03657848
C        7.31687309       4.26609696      16.75315716       10      -0.00019779       0.00070929      -0.04200094
C        8.52891586       4.96577407      16.75315716       10       0.00175749      -0.00113499      -0.01917376
C        6.10521401       6.36528449      16.75315716       10      -0.00245947       0.00226990      -0.04224623
C        7.31725118       7.06501451      16.75315716       10      -0.00251323      -0.00287878      -0.03676263
C        4.89261729       8.46449645      16.75315716       10       0.00831392       0.00253625      -0.03056642
C        6.10481259       9.16422002      16.75315716       10       0.00198287      -0.00024132      -0.04366604
