132
Lattice="12.12 0.0 0.0 -6.06 10.496227893867395 0.0 0.0 0.0 40.0" Properties=species:S:1:pos:R:3:tags:I:1:forces:R:3 stress="0.0028170582772854254 1.6284050510721864e-06 -1.386237997351101e-06 1.6284050510721864e-06 0.002819037486547349 7.782050974664933e-07 -1.386237997351101e-06 7.782050974664933e-07 0.0017675495479972522" energy=-1208.1577068871543 pbc="T T F"
C        0.00011665       0.00016468      10.00129717        2       0.00062390       0.00109766      -0.00027094
Ti       0.00128064       1.74891323       8.69052126        0      -0.00076793       0.00047461      -0.00454823
Ti       1.51487220       0.87504015      11.31175113        0       0.00110967      -0.00111639       0.00105412
O       -0.00050617       1.74973114      12.23008024        3       0.00001830       0.00023206       0.03271856
O        1.51535795       0.87463033       7.76942948        1      -0.00041347      -0.00012627      -0.00082738
C       -1.51416879       2.62388533      10.00109492        2      -0.00012294       0.00015932      -0.00095440
Ti      -1.51464976       4.37351745       8.68981798        0       0.00015945      -0.00038942      -0.00500865
Ti      -0.00109114       3.49941566      11.31456541        0       0.00012848       0.00010182       0.00091619
O       -1.51542535       4.37383593      12.23008024        3      -0.00009521       0.00060675       0.04019621
O       -0.00014425       3.49817696       7.77091998        1       0.00036357       0.00034526      -0.00373876
C       -3.02964483       5.24860947       9.99997192        2       0.00055261       0.00071908      -0.00112857
Ti      -3.02957075       6.99817130       8.68873709        0      -0.00028503      -0.00182932      -0.00296086
Ti      -1.51477695       6.12232712      11.31268487        0      -0.00084280       0.00035753       0.00035701
O       -3.02979656       6.99719467      12.23008024        3      -0.00053766       0.00024464       0.02503661
O       -1.51481207       6.12242725       7.76955252        1      -0.00039937      -0.00012328      -0.00163799
C       -4.54453313       7.87202350      10.00019047        2       0.00016159      -0.00073057       0.00049866
Ti      -4.54480611       9.62155124       8.68943094        0      -0.00171742       0.00093461      -0.00212838
Ti      -3.02983983       8.74688479      11.31158581        0      -0.00015365      -0.00011131       0.00267349
O       -4.54489077       9.62157566      12.23008024        3       0.00034469      -0.00032118       0.02263409
O       -3.02988889       8.74731514       7.76890120        1       0.00027955      -0.00037568      -0.00120326
C        3.03037002       0.00004594      10.00024054        2      -0.00057978       0.00012818       0.00086452
Ti       3.03040644       1.74945409       8.68909296        0      -0.00124025       0.00055396      -0.00194976
Ti       4.54503742       0.87489270      11.31143723        0       0.00015866      -0.00027017       0.00202361
O        3.03015956       1.74972329      12.23008024        3       0.00046918      -0.00059087       0.02335650
O        4.54507277       0.87473155       7.76879099        1       0.00003937      -0.00075187      -0.00075671
C        1.51516213       2.62403861      10.00093082        2      -0.00084020      -0.00086595      -0.00005270
Ti       1.51526643       4.37336489       8.68962668        0      -0.00087934      -0.00009729      -0.00170897
Ti       3.03039443       3.49886572      11.31124579        0       0.00055883       0.00065192       0.00131519
O        1.51529724       4.37360652      12.23008024        3      -0.00067990      -0.00030254       0.02403269
O        3.03028194       3.49875031       7.76934751        1      -0.00002997      -0.00000045      -0.00046567
C        0.00016547       5.24804125      10.00074791        2      -0.00082656      -0.00005522      -0.00041102
Ti       0.00034268       6.99755698       8.68895544        0       0.00009269      -0.00113086      -0.00165252
Ti       1.51519614       6.12287806      11.31096460        0       0.00105076       0.00015792       0.00103519
O        0.00030345       6.99736513      12.23008024        3      -0.00033421       0.00039279       0.02389358
O        1.51521310       6.12259359       7.76913729        1       0.00073273       0.00027964      -0.00041173
C       -1.51462697       7.87230458       9.99997725        2      -0.00051307      -0.00091773       0.00081694
Ti      -1.51449573       9.62147711       8.68862866        0       0.00098352       0.00001811      -0.00283859
Ti       0.00039306       8.74677716      11.31112204        0      -0.00022044       0.00024326       0.00184408
O       -1.51459609       9.62152656      12.23008024        3      -0.00036792      -0.00005264       0.01993848
O        0.00066507       8.74699578       7.76894431        1      -0.00072095      -0.00002525       0.00010138
C        6.06008106       0.00002170      10.00025813        2       0.00011283       0.00071708       0.00015010
Ti       6.05973570       1.74909755       8.68919291        0       0.00101678       0.00101172      -0.00282606
Ti       7.57551624       0.87505756      11.31292284        0      -0.00056629      -0.00010563      -0.00072003
O        6.06020474       1.74962509      12.23008024        3      -0.00048386       0.00052107       0.02751476
O        7.57552555       0.87510666       7.76988608        1       0.00020970       0.00035190      -0.00241128
C        4.54546785       2.62395714      10.00014385        2       0.00052384       0.00003119       0.00060485
Ti       4.54561247       4.37317798       8.68910180        0       0.00008011       0.00003010      -0.00236817
Ti       6.06189988       3.49927422      11.31231360        0      -0.00063184       0.00040918      -0.00002765
O        4.54590848       4.37328048      12.23008024        3       0.00017103      -0.00005475       0.02277147
O        6.06086681       3.49848082       7.76945750        1      -0.00054614       0.00028221      -0.00174048
C        3.03048765       5.24799970      10.00003077        2      -0.00018840       0.00008744       0.00121667
Ti       3.03043878       6.99760892       8.68773780        0      -0.00005157       0.00017473      -0.00199423
Ti       4.54554564       6.12263755      11.31135292        0      -0.00072868       0.00032157       0.00118235
O        3.03053271       6.99735620      12.23008024        3      -0.00066111       0.00039832       0.01933392
O        4.54572512       6.12266555       7.76916585        1      -0.00083485       0.00022074      -0.00067968
C        1.51539480       7.87220360       9.99991582        2      -0.00007181      -0.00024362       0.00122730
Ti       1.51553039       9.62180839       8.68983760        0       0.00122827       0.00035321      -0.00191282
Ti       3.02997447       8.74681532      11.31084631        0       0.00006816      -0.00137772       0.00048748
O        1.51531740       9.62179427      12.23008024        3      -0.00026843      -0.00040049       0.02634224
O        3.03048976       8.74738336       7.76934656        1       0.00010760      -0.00110614      -0.00079246
C        9.09024211       0.00042746      10.00112055        2      -0.00025334       0.00058331      -0.00115756
Ti       9.08998668       1.74948630       8.68966290        0       0.00067922       0.00025339      -0.00476192
Ti      10.60410879       0.87585058      11.31683862        0      -0.00020585       0.00004421      -0.00005146
O        9.08950031       1.74975850      12.23008024        3      -0.00011403       0.00001420       0.03775237
O       10.60542578       0.87534512       7.77149465        1       0.00040236      -0.00023914      -0.00401833
C        7.57502457       2.62397917      10.00009934        2       0.00016619      -0.00057044      -0.00161568
Ti       7.57562243       4.37328126       8.68926385        0       0.00003620      -0.00006125      -0.00384604
Ti       9.09148066       3.49849449      11.30258759        0       0.00001942       0.00000197       0.00077856
O        7.57725675       4.37230407      12.23008024        3      -0.00006694       0.00023634       0.06361016
O        9.09083208       3.49845943       7.76960154        1      -0.00022320       0.00045406      -0.00572914
C        6.06108898       5.24765623      10.00056521        2       0.00014193       0.00036061       0.00004570
Ti       6.06064562       6.99745944       8.68891944        0      -0.00015881       0.00012577      -0.00296949
Ti       7.57563427       6.12147456      11.31201328        0      -0.00025568       0.00023767       0.00027044
O        6.06063453       6.99695011      12.23008024        3       0.00062023       0.00022111       0.02335152
O        7.57571453       6.12255653       7.76935706        1       0.00025684       0.00043981      -0.00156726
C        4.54543516       7.87229405      10.00024548        2       0.00011127      -0.00018657       0.00066138
Ti       4.54528791       9.62166969       8.69018272        0      -0.00018421       0.00061600      -0.00180160
Ti       6.06038812       8.74663765      11.31127368        0       0.00018809      -0.00025595       0.00109474
O        4.54508862       9.62158576      12.23008024        3       0.00003289       0.00034899       0.02383738
O        6.06014021       8.74705348       7.76953642        1       0.00051532       0.00030008      -0.00049038
C        0.06893165       0.05461437      18.34625431       10       0.00537071       0.00149428      -0.00034761
C        1.27634583       0.75734068      18.35464254       10      -0.00235277      -0.00185333       0.00745002
C       -1.12189632       2.14195093      18.32188364       10       0.00287448      -0.00262463       0.57425357
C        0.06529933       2.85446354      18.32952238       10      -0.00033405      -0.00109118      -0.01571381
C       -2.36332015       4.28952881      18.32187809       10       0.00382134       0.00151523       0.38875246
C       -1.15323682       4.96292795      18.32951982       10       0.00403864       0.00063906       0.00342130
C       -3.57586322       6.36879449      18.34625376       10       0.00216140      -0.00087187       0.00079903
C       -2.36311483       7.06108087      18.35464234       10      -0.00167304       0.00045289       0.01195144
C       -4.78663877       8.45738675      18.34436137       10       0.00129321       0.00046521       0.00097867
C       -3.57464211       9.15668124      18.35565103       10      -0.00567929      -0.00504609      -0.00348060
C        2.48753718       0.05803711      18.35667605       10      -0.00057401      -0.00019458       0.00727673
C        3.69670877       0.75882224      18.35565094       10       0.00140817      -0.00020684      -0.00357062
C        1.28121567       2.15419499      18.34625452       10      -0.00055466       0.00025784      -0.00086286
C        2.48665619       2.85839750      18.33719439       10      -0.00142044       0.00094254      -0.00243996
C        0.06274146       4.25938134      18.30339450       10       0.00507926      -0.00142453      -0.01500887
C        1.27058929       4.95705438      18.31506445       10       0.00256359      -0.00073809      -0.01013025
C       -1.15193052       6.36676386      18.34625376       10      -0.00219977       0.00178991       0.01184169
C        0.06119358       7.05897207      18.33719449       10      -0.00355157      -0.00093888       0.00217326
C       -2.36323673       8.45971381      18.35667626       10       0.00110003       0.00170641       0.00606446
C       -1.15198668       9.15662679      18.35565103       10       0.00434835      -0.00111117      -0.00419603
C        4.90584339       0.05784860      18.35667605       10       0.00255111       0.00114865       0.00655383
C        6.11725502       0.75703932      18.35464254       10       0.00148513       0.00147475       0.01213583
C        3.69639268       2.15791381      18.34436124       10      -0.00162562       0.00142412       0.00102337
C        4.90608171       2.85871087      18.33719439       10      -0.00176164       0.00188625       0.01198655
C        2.48428232       4.25696781      18.32331089       10       0.00091298       0.00018309      -0.00052748
C        3.69647668       4.95784676      18.32052303       10      -0.00095453       0.00112529      -0.00436528
C        1.27121167       6.35815814      18.32331079       10      -0.00422391      -0.00126181      -0.00396362
C        2.48455354       7.05726869      18.32052292       10      -0.00199109      -0.00158099      -0.00536636
C        0.05948689       8.45728906      18.34436137       10       0.00204729      -0.00145549       0.00083892
C        1.27131714       9.15505014      18.33719424       10       0.00050159      -0.00110004       0.00307327
C        7.32414624       0.05538067      18.34625431       10      -0.00032797       0.00039486       0.01184421
C        8.53941501       0.75824438      18.32952219       10       0.00050429      -0.00193106       0.00156188
C        6.11077399       2.15339974      18.34625452       10      -0.00222763       0.00118469       0.00060422
C        7.32752675       2.85351119      18.32952238       10      -0.00177139      -0.00276092       0.01718919
C        4.90829430       4.25649775      18.32331089       10      -0.00300653       0.00153567       0.00868542
C        6.12123252       4.95756583      18.31506445       10      -0.00263664      -0.00025408      -0.01053708
C        3.69637226       6.35734238      18.31744503       10       0.00189302       0.00060178      -0.01021467
C        4.90819537       7.05721764      18.32052292       10       0.00498557      -0.00071399      -0.00434437
C        2.48335673       8.45762924      18.32331062       10      -0.00208948      -0.00017559      -0.00411534
C        3.69660484       9.15837910      18.31506404       10      -0.00226906       0.00096998      -0.00948700
C        9.75678389       0.05687484      18.30339445       10       0.00479559       0.00508327      -0.01487736
C       10.97469855       0.75750462      18.32952219       10      -0.00228632      -0.00148858      -0.01441841
C        8.51752836       2.14289870      18.32188364       10      -0.00065341      -0.00125274       0.38732477
C        9.75575630       2.85899618      18.07752438       10       0.00029309       0.00020181      -1.73783056
C        7.32929817       4.26024921      18.30339450       10      -0.00302402      -0.00179337      -0.03839107
C        8.54659565       4.96505374      18.32951982       10      -0.00366301       0.00062641       0.01762597
C        6.12136993       6.35854024      18.32331079       10       0.00728204      -0.00031435       0.00880159
C        7.33088111       7.05931103      18.33719449       10       0.00263559       0.00263226       0.01191305
C        4.90961803       8.45734549      18.32331062       10      -0.00074163       0.00247119      -0.00070322
C        6.12205493       9.15481142      18.33719424       10      -0.00857726      -0.00179905      -0.00257741
O        9.83087167       2.81699366      16.50868878       11       0.00678208      -0.00367450       0.00566845
H        9.04548735       3.25452593      16.13257411       12      -0.00401058       0.00338920      -0.00372709
