130
Lattice="12.12 0.0 0.0 -6.06 10.496227893867395 0.0 0.0 0.0 40.0" Properties=species:S:1:pos:R:3:tags:I:1:forces:R:3 energy=-1201.2979476413207 stress="0.002877874663418878 4.9697534555351934e-08 1.01829834956625e-07 4.9697534555351934e-08 0.0028776477521504145 6.291056703149256e-07 1.01829834956625e-07 6.291056703149256e-07 0.002212822186842324" pbc="T T F"
C        0.00000497      -0.00001423      10.00299383        2      -0.00001385       0.00002390       0.00301127
Ti      -0.00000150       1.74942701       8.71194544        0       0.00002793       0.00002092       0.00353282
Ti       1.51495322       0.87461247      11.29290161        0       0.00016991       0.00019035       0.00179992
O       -0.00010775       1.75011642      12.23008024        3      -0.00002103       0.00003612       0.09179353
O        1.51492346       0.87465855       7.77235750        1      -0.00003174      -0.00000099       0.00374977
C       -1.51497444       2.62406257      10.00257477        2       0.00000323       0.00005241       0.00276165
Ti      -1.51502306       4.37347747       8.71168924        0       0.00004750       0.00001944       0.00294398
Ti      -0.00000616       3.49905119      11.29252160        0       0.00011722       0.00029608       0.00163170
O       -1.51519644       4.37389072      12.23008024        3       0.00004895       0.00013251       0.10117089
O        0.00001843       3.49859236       7.77223004        1       0.00002081      -0.00011659       0.00342057
C       -3.02996777       5.24815807      10.00226160        2       0.00006409       0.00010588       0.00253153
Ti      -3.02998334       6.99744994       8.71167132        0       0.00001901       0.00004179       0.00293910
Ti      -1.51492102       6.12288422      11.29255870        0       0.00021817       0.00009506       0.00141791
O       -3.02978103       6.99717398      12.23008024        3       0.00013144       0.00010106       0.09884172
O       -1.51504906       6.12275933       7.77211379        1      -0.00002189       0.00001151       0.00311570
C       -4.54499089       7.87218819      10.00251521        2       0.00008799       0.00003309       0.00277071
Ti      -4.54494899       9.62150692       8.71191502        0      -0.00000536       0.00005036       0.00354486
Ti      -3.02966277       8.74670657      11.29248720        0       0.00022369       0.00003445       0.00149808
O       -4.54417364       9.62079508      12.23008024        3      -0.00002523       0.00001510       0.09993061
O       -3.03011692       8.74695902       7.77220745        1      -0.00007156       0.00013904       0.00337616
C        3.03000449       0.00002601      10.00260001        2       0.00001183       0.00000578       0.00280035
Ti       3.03000160       1.74937560       8.71185161        0      -0.00001791       0.00006465       0.00326094
Ti       4.54506236       0.87474078      11.29255516        0       0.00005145       0.00023174       0.00169279
O        3.03024421       1.74969569      12.23008024        3      -0.00006363       0.00005232       0.10282684
O        4.54492186       0.87475922       7.77221594        1      -0.00004643       0.00014929       0.00342463
C        1.51498168       2.62404045      10.00263940        2      -0.00003711       0.00004383       0.00268769
Ti       1.51502692       4.37348425       8.71171437        0       0.00003398       0.00002143       0.00289632
Ti       3.02998135       3.49882318      11.29258336        0      -0.00001469       0.00026676       0.00173209
O        1.51510212       4.37379131      12.23008024        3      -0.00006351       0.00021317       0.10402375
O        3.02999978       3.49865291       7.77223173        1       0.00004080      -0.00004736       0.00344063
C        0.00001948       5.24814850      10.00227302        2      -0.00002060       0.00013209       0.00234962
Ti       0.00000274       6.99749580       8.71165389        0       0.00005094       0.00007977       0.00278512
Ti       1.51495970       6.12287928      11.29260439        0       0.00003281       0.00009299       0.00151583
O        0.00004349       6.99759458      12.23008024        3      -0.00000899       0.00016986       0.09120995
O        1.51505546       6.12274459       7.77212870        1       0.00007312      -0.00000497       0.00316936
C       -1.51493554       7.87220019      10.00223566        2       0.00001737       0.00008208       0.00241798
Ti      -1.51493862       9.62155028       8.71168253        0       0.00000570       0.00011500       0.00299143
Ti       0.00003014       8.74687304      11.29263345        0       0.00006647       0.00011443       0.00145479
O       -1.51471259       9.62167503      12.23008024        3       0.00004674       0.00004438       0.10287200
O       -0.00000636       8.74693266       7.77211623        1       0.00001040       0.00016433       0.00316324
C        6.06000774       0.00007686      10.00230226        2      -0.00000585       0.00009334       0.00252591
Ti       6.06000279       1.74941571       8.71178456        0      -0.00002216       0.00010894       0.00311480
Ti       7.57499078       0.87481097      11.29256865        0      -0.00013425       0.00017747       0.00162972
O        6.06004262       1.74930403      12.23008024        3       0.00000333       0.00015244       0.10420679
O        7.57506091       0.87475953       7.77220296        1       0.00004015       0.00015650       0.00337994
C        4.54501495       2.62410621      10.00252662        2      -0.00002183       0.00005826       0.00254352
Ti       4.54502019       4.37342709       8.71180763        0      -0.00002449       0.00001357       0.00303320
Ti       6.06004222       3.49886632      11.29312790        0      -0.00011958       0.00021992       0.00177020
O        4.54471954       4.37369297      12.23008024        3      -0.00000526       0.00017448       0.10229865
O        6.05999721       3.49875874       7.77224957        1       0.00000347       0.00007349       0.00342229
C        3.03000669       5.24813556      10.00230572        2      -0.00003926       0.00013023       0.00239265
Ti       3.02998698       6.99744880       8.71168884        0       0.00002328       0.00002362       0.00290305
Ti       4.54501555       6.12282232      11.29261972        0      -0.00016167       0.00001269       0.00164574
O        3.02994625       6.99718314      12.23008024        3      -0.00006892       0.00020416       0.10103929
O        4.54507311       6.12282472       7.77221126        1       0.00007966       0.00004557       0.00336207
C        1.51496117       7.87219219      10.00224824        2      -0.00000999       0.00013552       0.00234245
Ti       1.51495064       9.62155986       8.71167741        0       0.00003002       0.00010145       0.00299130
Ti       3.02965257       8.74671497      11.29249057        0      -0.00017085      -0.00002461       0.00159458
O        1.51468941       9.62190505      12.23008024        3       0.00000816       0.00007128       0.10186651
O        3.03012556       8.74693994       7.77221274        1       0.00008947       0.00013313       0.00337872
C        9.08998837       0.00003407      10.00254559        2       0.00002127       0.00008938       0.00275359
Ti       9.08999205       1.74938621       8.71181243        0       0.00003204       0.00005750       0.00324935
Ti      10.60499815       0.87464537      11.29281339        0      -0.00011280       0.00012609       0.00171219
O        9.08992493       1.74983154      12.23008024        3      -0.00002378       0.00007912       0.10172276
O       10.60509510       0.87465603       7.77234491        1       0.00005024       0.00002169       0.00368072
C        7.57498289       2.62412881      10.00249100        2       0.00007236       0.00009899       0.00256286
Ti       7.57498993       4.37343159       8.71180158        0      -0.00001524       0.00001122       0.00308665
Ti       9.09004983       3.49886491      11.29262277        0       0.00001744       0.00019229       0.00159044
O        7.57527583       4.37364757      12.23008024        3       0.00009556       0.00016353       0.09837436
O        9.09000444       3.49866852       7.77221086        1      -0.00000289      -0.00001113       0.00334326
C        6.06000916       5.24810786      10.00249833        2       0.00006860       0.00016708       0.00253793
Ti       6.06000362       6.99747402       8.71180473        0      -0.00001457       0.00002040       0.00319019
Ti       7.57508508       6.12283169      11.29265074        0       0.00007261       0.00003369       0.00154672
O        6.06018614       6.99728019      12.23008024        3       0.00003774       0.00006625       0.10034756
O        7.57492900       6.12283873       7.77220167        1      -0.00004592       0.00007005       0.00331399
C        4.54499275       7.87218366      10.00253344        2       0.00000926       0.00008343       0.00265834
Ti       4.54494310       9.62151017       8.71190310        0       0.00001705       0.00003023       0.00348105
Ti       6.05998450       8.74687335      11.29276177        0      -0.00002630      -0.00011989       0.00169321
O        4.54403332       9.62092931      12.23008024        3       0.00008945       0.00009269       0.10569291
O        6.06000484       8.74697009       7.77232903        1       0.00001988       0.00010388       0.00365653
C        0.04512737       0.06755385      16.99931101       10      -0.00092399       0.00003583      -0.03908805
C        1.25720512       0.76731626      16.99931101       10      -0.00552349      -0.00197610      -0.03016383
C       -1.16717473       2.16678771      16.99931101       10       0.00123688       0.00214484      -0.03835556
C        0.04484444       2.86661237      16.99931101       10       0.00106498      -0.00179719      -0.03880826
C       -2.37908743       4.26593674      16.99931101       10      -0.00131631       0.00069352      -0.03421705
C       -1.16704707       4.96576242      16.99931101       10       0.00048367      -0.00070970      -0.04253599
C       -3.59097813       6.36517906      16.99931101       10      -0.00295248       0.00222574      -0.03706899
C       -2.37891221       7.06491668      16.99931101       10      -0.00054921      -0.00219795      -0.04341776
C       -4.80312145       8.46442104      16.99931101       10       0.00251733       0.00093381      -0.03787594
C       -3.59102694       9.16414045      16.99931101       10      -0.00014435      -0.00042061      -0.03860840
C        2.46911998       0.06751617      16.99931101       10       0.00018170      -0.00044137      -0.03314472
C        3.68122881       0.76725476      16.99931101       10      -0.00433375      -0.00040526      -0.02700704
C        1.25690450       2.16678133      16.99931101       10       0.00346445       0.00134229      -0.03506117
C        2.46901423       2.86653760      16.99931101       10      -0.00164715       0.00012381      -0.02653656
C        0.04501297       4.26598814      16.99931101       10      -0.00117737      -0.00016883      -0.02644591
C        1.25710719       4.96574290      16.99931101       10      -0.00203023       0.00211732      -0.04317603
C       -1.16686738       6.36519158      16.99931101       10      -0.00219146       0.00138766      -0.03815001
C        0.04514925       7.06493930      16.99931101       10      -0.00049754       0.00054415      -0.04002188
C       -2.37911718       8.46443617      16.99931101       10       0.00189757       0.00093926      -0.02734546
C       -1.16702376       9.16414446      16.99931101       10       0.00127452       0.00236382      -0.04416639
C        4.89307800       0.06750940      16.99931101       10      -0.00165254      -0.00134092      -0.03255146
C        6.10502175       0.76729586      16.99931101       10       0.00029749      -0.00101096      -0.03974243
C        3.68096954       2.16676478      16.99931101       10       0.00271056      -0.00001671      -0.03936286
C        4.89289159       2.86655571      16.99931101       10       0.00263683       0.00024476      -0.02988716
C        2.46904582       4.26595328      16.99931101       10       0.00093666      -0.00270777      -0.03129099
C        3.68098498       4.96573169      16.99931101       10      -0.00097617       0.00245124      -0.04064911
C        1.25716925       6.36520568      16.99931101       10      -0.00264254      -0.00051061      -0.03656318
C        2.46913891       7.06497069      16.99931101       10      -0.00278797      -0.00025223      -0.04474798
C        0.04496945       8.46442423      16.99931101       10      -0.00027948       0.00073534      -0.03757229
C        1.25687216       9.16430872      16.99931101       10       0.00163097       0.00105341      -0.04624081
C        7.31709819       0.06765767      16.99931101       10      -0.00131342      -0.00268228      -0.03648733
C        8.52899589       0.76734546      16.99931101       10      -0.00198485      -0.00119154      -0.02675329
C        6.10483356       2.16676294      16.99931101       10       0.00045962      -0.00081649      -0.04275007
C        7.31673950       2.86655627      16.99931101       10       0.00218236      -0.00164517      -0.03067649
C        4.89286681       4.26603102      16.99931101       10       0.00196526      -0.00239103      -0.04456988
C        6.10492671       4.96561370      16.99931101       10       0.00115592      -0.00013551      -0.03203398
C        3.68116860       6.36526229      16.99931101       10       0.00159591      -0.00035232      -0.03776613
C        4.89313393       7.06489647      16.99931101       10      -0.00350550      -0.00162807      -0.02704085
C        2.46888366       8.46452790      16.99931101       10       0.00436599       0.00013246      -0.02817781
C        3.68083343       9.16418554      16.99931101       10      -0.00021991       0.00021565      -0.03779496
C        9.74105811       0.06755769      16.99931101       10       0.00007927       0.00015211      -0.03280279
C       10.95304228       0.76731360      16.99931101       10      -0.00260462      -0.00120000      -0.02861089
C        8.52875710       2.16681700      16.99931101       10       0.00052292       0.00192866      -0.03861309
C        9.74072304       2.86658164      16.99931101       10       0.00288700      -0.00246030      -0.02570792
C        7.31693563       4.26597733      16.99931101       10      -0.00051277       0.00045455      -0.04377984
C        8.52892214       4.96570484      16.99931101       10       0.00126591      -0.00091672      -0.04094031
C        6.10510584       6.36508148      16.99931101       10      -0.00113602       0.00151608      -0.03731380
C        7.31707813       7.06488223      16.99931101       10      -0.00127897      -0.00243439      -0.02638279
C        4.89288497       8.46443259      16.99931101       10       0.00547566       0.00169556      -0.03413857
C        6.10489394       9.16418550      16.99931101       10       0.00087917      -0.00033286      -0.02798979
