132
Lattice="12.12 0.0 0.0 -6.06 10.496227893867395 0.0 0.0 0.0 40.0" Properties=species:S:1:pos:R:3:tags:I:1:forces:R:3 stress="0.0026821474677381375 -2.0647487339054342e-05 -3.9195319666700526e-08 -2.0647487339054342e-05 0.0026402171417189858 1.2600993084671793e-05 -3.9195319666700526e-08 1.2600993084671793e-05 0.003067041418872561" energy=-1206.6933993240661 pbc="T T F"
C       -0.35237576       0.02224998       9.95335532        2       0.00223229       0.00065476      -0.00258901
Ti      -0.34233839       1.77034091       8.69729369        0       0.00663424      -0.00236458       0.00236624
Ti       1.20961885       0.87180306      11.24503596        0       0.00011948       0.00061716       0.00414755
O       -0.28488471       1.70900628      12.23008024        3       0.00151568      -0.00420043      -0.90199491
O        1.15331879       0.90799215       7.76618772        1       0.00240644       0.00060380       0.00314547
C       -1.87495714       2.66011331      10.06037176        2      -0.00278714       0.00283653      -0.00387129
Ti      -1.87519506       4.42421260       8.71529063        0      -0.00217822       0.00630840       0.00395761
Ti      -0.38457841       3.58406914      11.27100726        0       0.00189598      -0.00337214      -0.00053021
O       -1.85038544       4.60495353      12.23008024        3      -0.00232866       0.00107815      -0.75260889
O       -0.36837223       3.52156203       7.78427954        1      -0.00166247       0.00208165      -0.00171993
C       -3.38192830       5.27768995       9.96442113        2       0.00247021       0.00341197       0.00013088
Ti      -3.39598612       7.02262683       8.69863781        0       0.00020968      -0.00353229       0.00223730
Ti      -1.87131642       6.24326228      11.23472632        0       0.00520329       0.00544160      -0.00273180
O       -3.39459821       7.04412478      12.23008024        3      -0.00019464       0.00060832      -0.20221033
O       -1.87275105       6.14828155       7.76598549        1       0.00474065       0.00596940       0.00173135
C       -4.90178233       7.90229543       9.95552805        2       0.00153550       0.00152090      -0.00480395
Ti      -4.90732599       9.64096537       8.69143170        0      -0.00452895       0.00141849       0.00130399
Ti      -3.39339977       8.78068354      11.27737574        0       0.00085240      -0.00060212      -0.00339204
O       -4.90277757       9.64295402      12.23008024        3      -0.00198319      -0.00029372      -0.19459237
O       -3.39084464       8.77061410       7.75949888        1       0.00082796      -0.00009640      -0.00508748
C        2.68394085       0.02210484       9.96472342        2       0.00074487       0.00014689      -0.00321088
Ti       2.67796112       1.78523853       8.69713968        0      -0.00177070       0.00163391       0.00156761
Ti       4.18566009       0.90709716      11.27590168        0      -0.00323290       0.00370194      -0.00233374
O        2.67495803       1.77655756      12.23008024        3       0.00330519       0.00259504      -0.17135075
O        4.19131049       0.91231251       7.76206496        1      -0.00041341       0.00385131      -0.00072848
C        1.16003049       2.65045671       9.96342391        2       0.00087752      -0.00004619       0.00056363
Ti       1.16215301       4.40380908       8.68342788        0       0.00257982       0.00309008       0.00137894
Ti       2.66433769       3.52443228      11.29836382        0      -0.00065495       0.00291275      -0.00164999
O        1.16959891       4.41566518      12.23008024        3      -0.00367812       0.00210513      -0.13922503
O        2.67779997       3.52837692       7.76797624        1      -0.00168648       0.00150679       0.00332900
C       -0.34834691       5.29748806       9.95729592        2       0.00122783       0.00230365       0.00168580
Ti      -0.34656272       7.02843901       8.68160529        0       0.00150709       0.00306324       0.00200668
Ti       1.16295795       6.15619064      11.28918064        0       0.00028464       0.00176836       0.00195580
O       -0.34095118       7.04672041      12.23008024        3       0.00065599      -0.00223641      -0.27666682
O        1.16214777       6.14765228       7.76074674        1       0.00271106       0.00161392       0.00062868
C       -1.86893634       7.92620164       9.95474857        2      -0.00058023       0.00281672       0.00185691
Ti      -1.87254576       9.65118783       8.66450237        0       0.00574159       0.00166693       0.00074222
Ti      -0.35599815       8.78209465      11.28330954        0       0.00264069      -0.00516244      -0.00039612
O       -1.87028384       9.64904087      12.23008024        3       0.00155140       0.00140481      -0.29277000
O       -0.35739545       8.77639961       7.75030735        1       0.00062908      -0.00054083      -0.00070035
C        5.68965125       0.01684725       9.95832965        2      -0.00062315       0.00098716      -0.00321538
Ti       5.70374021       1.78510393       8.70529312        0      -0.00064090       0.00159838      -0.00101890
Ti       7.15771594       0.86628670      11.24808822        0       0.00255474      -0.00035917      -0.00642402
O        5.69369846       1.77357698      12.23008024        3      -0.00006326       0.00273024      -0.16918111
O        7.22117559       0.90635462       7.76807455        1      -0.00167168      -0.00089399      -0.00009340
C        4.18827360       2.64920822       9.96372359        2       0.00261618       0.00007381      -0.00885481
Ti       4.19302216       4.39820510       8.70272862        0      -0.00347164       0.00106230       0.00349730
Ti       5.71606376       3.51573007      11.28595047        0      -0.00059936       0.00027051      -0.00526806
O        4.19183755       4.39727356      12.23008024        3       0.00083797       0.00467320      -0.19996210
O        5.71093963       3.52770642       7.77550078        1      -0.00011241       0.00080035      -0.00086542
C        2.67608533       5.27255598       9.96075843        2       0.00172382       0.00250810       0.00114191
Ti       2.68447999       7.01798079       8.70437451        0      -0.00129008       0.00063806       0.00071973
Ti       4.19718720       6.14198595      11.28852645        0       0.00120701       0.00524592      -0.00341268
O        2.68055262       7.02068608      12.23008024        3       0.00380126       0.00066764      -0.18552775
O        4.19874793       6.14170947       7.76860123        1      -0.00760093       0.00408582       0.00145363
C        1.16074649       7.90109421       9.94717030        2       0.00157466       0.00330522      -0.00315269
Ti       1.16172678       9.63875656       8.68266610        0      -0.00068361       0.00361332       0.00104451
Ti       2.67592944       8.76311997      11.28409880        0      -0.00052547       0.00257634      -0.00241758
O        1.15665595       9.63113125      12.23008024        3       0.00248028      -0.00209553      -0.26174109
O        2.67734440       8.77010049       7.75786715        1       0.00047378       0.00055470      -0.00219051
C        8.72192199       0.00993218       9.95327899        2      -0.00213173      -0.00294421      -0.00598664
Ti       8.71337409       1.77003153       8.71298909        0      -0.00180079       0.00154606       0.00322402
Ti      10.19711259       0.88801251      11.24705185        0      -0.00424864       0.00124275       0.00000393
O        8.62864037       1.66880129      12.23008024        3       0.00010959       0.00306997      -0.66484621
O       10.24793936       0.91789269       7.77989885        1      -0.00059178       0.00032715      -0.00120696
C        7.22571191       2.64672355       9.97020719        2      -0.00381188      -0.00060203      -0.00573352
Ti       7.22433348       4.39732760       8.71996847        0      -0.00032223       0.00315516       0.00197770
Ti       8.82636054       3.48841584      11.48087405        0       0.00016914      -0.00796893       0.00095460
O        7.24466746       4.39016950      12.23008024        3      -0.00408080       0.00343718      -0.05062647
O        8.74663067       3.51901416       7.80867542        1       0.00596535       0.00264127       0.00007171
C        5.71441037       5.26769016       9.98427792        2       0.00024561       0.00427388       0.00262184
Ti       5.70600014       7.02115949       8.70177296        0      -0.00124282       0.00439631      -0.00010047
Ti       7.23400719       6.14749816      11.28804149        0      -0.00175662       0.00468998      -0.00410702
O        5.70763493       7.02342519      12.23008024        3       0.00078258      -0.00057858      -0.21123708
O        7.21987989       6.14099035       7.77383038        1      -0.00081429       0.00454989      -0.00362011
C        4.19178182       7.89658573       9.95775861        2      -0.00049044      -0.00135291      -0.00059537
Ti       4.18810327       9.64532451       8.67542132        0       0.00334444       0.00177741       0.00199475
Ti       5.69862895       8.77724152      11.29546899        0      -0.00254678       0.00188207      -0.00198830
O        4.18573065       9.63195905      12.23008024        3      -0.00202856       0.00128963      -0.23409845
O        5.70267355       8.76750114       7.76250219        1      -0.00036202       0.00215724       0.00239500
C        0.58335679       0.03439963      15.14625431       10      -0.00564407      -0.00514010       0.10479528
C        1.79129905       0.73910692      15.15464254       10      -0.00110604      -0.00183925       0.08535454
C       -0.60463282       2.12483585      15.12188364       10       0.00003820      -0.00379387       0.87455503
C        0.58465701       2.83712101      15.12952238       10      -0.00141897      -0.00063693       0.15138794
C       -1.84877286       4.26480846      15.12187809       10      -0.00290231      -0.00403440      -0.01610041
C       -0.63865083       4.94248067      15.12951982       10      -0.00257359      -0.00308854       0.11942361
C       -3.06036772       6.34415101      15.14625376       10      -0.00206108      -0.00348709       0.01355977
C       -1.84791422       7.03917771      15.15464234       10      -0.00049485      -0.00461846       0.06916744
C       -4.27224962       8.43531762      15.14436137       10      -0.00283209      -0.00116182       0.08129663
C       -3.06000972       9.13648007      15.15565103       10       0.00352671      -0.00063358       0.08913051
C        3.00212816       0.03915240      15.15667605       10      -0.00027899      -0.00414179       0.04029254
C        4.21249414       0.74023056      15.15565094       10      -0.00053563      -0.00165102       0.08670525
C        1.79730027       2.13702985      15.14625452       10      -0.00183964      -0.00115181       0.06377516
C        3.00340708       2.84087093      15.13719439       10      -0.00177125      -0.00037884       0.07440243
C        0.57789347       4.24260466      15.10339450       10      -0.00235288      -0.00000690      -0.00455594
C        1.78680549       4.93901265      15.11506445       10      -0.00122339      -0.00122347       0.04478088
C       -0.63497164       6.34366195      15.14625376       10      -0.00211977      -0.00454588       0.03757430
C        0.57714973       7.03844616      15.13719449       10      -0.00180658      -0.00399763       0.05213923
C       -1.84834478       8.43845850      15.15667626       10       0.00253649      -0.00454755       0.03533170
C       -0.63632215       9.13648062      15.15565103       10       0.00264729      -0.00122974       0.09997005
C        5.42226736       0.03903468      15.15667605       10       0.00158801      -0.00208843       0.03983970
C        6.63396140       0.73879725      15.15464254       10       0.00116157       0.00048568       0.07167545
C        4.21283087       2.14080972      15.14436124       10      -0.00121876      -0.00112487       0.03572690
C        5.42233229       2.84024625      15.13719439       10       0.00050892      -0.00258851       0.06937881
C        2.99959225       4.24068874      15.12331089       10       0.00004740      -0.00021165       0.11052100
C        4.21200507       4.94054322      15.12052303       10       0.00182270      -0.00227851       0.03056199
C        1.78836025       6.33849695      15.12331079       10      -0.00129664      -0.00194226       0.10727519
C        3.00101570       7.03777384      15.12052292       10      -0.00086820      -0.00131133       0.02433927
C        0.57656172       8.43551534      15.14436137       10       0.00248461      -0.00343452       0.07603369
C        1.78718628       9.13452781      15.13719424       10       0.00181262       0.00000396       0.06251125
C        7.84277717       0.03459316      15.14625431       10      -0.00006976      -0.00141850       0.09095859
C        9.05296038       0.73823110      15.12952219       10      -0.00310065       0.00214707       0.11613499
C        6.62913447       2.13686709      15.14625452       10       0.00228467       0.00008717       0.02908611
C        7.84327604       2.83527922      15.12952238       10       0.00152142       0.00021039       0.13484145
C        5.42411829       4.24080895      15.12331089       10       0.00213428      -0.00299896       0.11497696
C        6.63750113       4.93857905      15.11506445       10       0.00189925      -0.00278775       0.03957277
C        4.21219763       6.33908950      15.11744503       10      -0.00029222      -0.00207177       0.15999028
C        5.42335744       7.03788716      15.12052292       10       0.00009921      -0.00287734       0.02829490
C        3.00021600       8.43681473      15.12331062       10       0.00179758      -0.00077989       0.13867367
C        4.21209546       9.13781297      15.11506404       10      -0.00038208       0.00155968       0.04576200
C       10.27072700       0.03671752      15.10339445       10      -0.00608767      -0.00208723       0.05053163
C       11.49150196       0.73522723      15.12952219       10       0.00000570      -0.00295647       0.22252006
C        9.03244289       2.12518226      15.12188364       10      -0.00001733       0.00038260       0.23975802
C       10.27063659       2.83664890      14.87752438       10       0.00126666      -0.00312822       0.25098137
C        7.84595480       4.24076842      15.10339450       10       0.00059347      -0.00221265       0.05029864
C        9.06205693       4.94226384      15.12951982       10       0.00157088      -0.00502694       0.12342812
C        6.63610253       6.33845610      15.12331079       10       0.00077365      -0.00263877       0.12329930
C        7.84762376       7.03851273      15.13719449       10       0.00160772      -0.00256246       0.04581540
C        5.42407097       8.43741994      15.12331062       10      -0.00168090      -0.00312044       0.14435586
C        6.63735200       9.13383071      15.13719424       10       0.00146157      -0.00113252       0.05934089
O       10.28511310       2.73171021      13.45782317       11      -0.00035455      -0.00366704       0.00703176
H       11.21832183       2.09221843      13.09957170       12      -0.00065573      -0.00243766       0.00029823
