132
Lattice="12.12 0.0 0.0 -6.06 10.496227893867395 0.0 0.0 0.0 40.0" Properties=species:S:1:pos:R:3:tags:I:1:forces:R:3 stress="0.002743764810454728 4.334011762955173e-09 1.1074871622045591e-07 4.334011762955173e-09 0.002714362270913738 1.330861495788046e-06 1.1074871622045591e-07 1.330861495788046e-06 0.0029670697344300907" energy=-1208.132698904822 pbc="T T F"
C       -0.93510422      -0.16921444       9.93132162        2      -0.00138003      -0.00003631      -0.00087831
Ti      -0.93470743       1.59224364       8.70866835        0      -0.00106140       0.00083011      -0.00396600
Ti       0.61916231       0.70151713      11.26995372        0       0.00182396      -0.00046329      -0.00324689
O       -0.93460709       1.35932841      12.23008024        3      -0.00869780       0.00219383      -0.93587479
O        0.57743764       0.74686726       7.78183412        1      -0.00029504      -0.00179471       0.00046578
C       -2.43149930       2.48689105      10.03516886        2      -0.00194943      -0.00103753      -0.00452338
Ti      -2.46169774       4.23669689       8.70735236        0       0.00557320      -0.00187443       0.00198016
Ti      -0.93525152       3.39986889      11.36309033        0       0.00458269      -0.00342348      -0.00017477
O       -2.57714886       4.32195923      12.23008024        3       0.00096195       0.00095101      -0.46920984
O       -0.93471862       3.35264567       7.80670753        1      -0.00450815      -0.00111759       0.00305036
C       -3.97354223       5.10885675       9.94557896        2      -0.00009063       0.00176674      -0.00173535
Ti      -3.97093478       6.84879761       8.68638978        0      -0.00097171       0.00480349      -0.00069946
Ti      -2.45696037       5.99923825      11.28106341        0      -0.00169750      -0.00115097      -0.00167705
O       -3.98686350       6.86123114      12.23008024        3       0.00214690       0.00178798      -0.21799513
O       -2.43634445       5.96658365       7.78003136        1      -0.00195421       0.00195079      -0.00375418
C       -5.48108212       7.72285231       9.94470848        2      -0.00000314       0.00310984       0.00052959
Ti      -5.48693840       9.46735871       8.67952857        0      -0.00184695       0.00142137       0.00086116
Ti      -3.97334520       8.59284878      11.28154202        0       0.00132292       0.00270781      -0.00142835
O       -5.47785675       9.44511275      12.23008024        3       0.00105885      -0.00204019      -0.27493621
O       -3.96533169       8.60016154       7.75254847        1       0.00429595       0.00380470      -0.00221183
C        2.10269753      -0.15520607       9.95912999        2       0.00231996      -0.00093435      -0.00143030
Ti       2.10542764       1.60178258       8.70168957        0       0.00235146       0.00265105      -0.00115508
Ti       3.62099911       0.72649439      11.27801604        0       0.00113809       0.00106291      -0.00003459
O        2.10919785       1.59146773      12.23008024        3       0.00003484       0.00163939      -0.22979259
O        3.60038312       0.73367195       7.76363970        1       0.00091748      -0.00012408       0.00296216
C        0.56175242       2.48656090      10.03457502        2      -0.00146507       0.00202579      -0.00217079
Ti       0.59066946       4.23810215       8.70722355        0       0.00184445      -0.00085288      -0.00340953
Ti       2.09483811       3.34994265      11.28945452        0      -0.00117407      -0.00079807       0.00223820
O        0.70747318       4.32250650      12.23008024        3      -0.00339748      -0.00314586      -0.47038417
O        2.07794167       3.34684857       7.78287571        1       0.00184912      -0.00226280       0.00517442
C       -0.93443981       5.09700473      10.02528209        2      -0.00363110       0.00175786       0.00017606
Ti      -0.93530980       6.86416552       8.70392388        0       0.00340235       0.00093589      -0.00406254
Ti       0.58828433       5.99934778      11.28029176        0      -0.00400431       0.00039440       0.00147317
O       -0.93498142       6.88310244      12.23008024        3      -0.00060699      -0.00141090      -0.23346867
O        0.56650152       5.96790706       7.77910894        1      -0.00128198       0.00006737       0.00449061
C       -2.45339377       7.73652257       9.95198401        2       0.00079138      -0.00035175       0.00224681
Ti      -2.45478954       9.47145761       8.68123904        0       0.00141392       0.00291901       0.00114427
Ti      -0.93511539       8.61412990      11.29436059        0      -0.00216934       0.00004211       0.00457589
O       -2.45051046       9.47239115      12.23008024        3       0.00099526       0.00134975      -0.26062824
O       -0.93551929       8.59525060       7.76285613        1       0.00039551       0.00293819      -0.00159617
C        5.12376234      -0.14401102       9.95900635        2       0.00427588      -0.00143701       0.00161641
Ti       5.12406985       1.60699695       8.68775005        0      -0.00510764       0.00581497       0.00020458
Ti       6.62741318       0.72864687      11.27809599        0      -0.00157682      -0.00722334      -0.00025919
O        5.12403057       1.60890389      12.23008024        3       0.00093033      -0.00182664      -0.20468523
O        6.64812781       0.73418570       7.76411732        1       0.00106946      -0.00044696      -0.00353767
C        3.61385332       2.47459811       9.95667059        2       0.00057400      -0.00216064       0.00097953
Ti       3.61053972       4.22859908       8.69264232        0      -0.00134877      -0.00152679      -0.00784877
Ti       5.12455753       3.35817769      11.29329439        0      -0.00221032       0.00074286      -0.00457505
O        3.62703508       4.23720071      12.23008024        3      -0.00221180      -0.00308292      -0.20136134
O        5.12419434       3.35199105       7.75951297        1       0.00100779      -0.00213958       0.00193061
C        2.10314556       5.11056587       9.94564007        2       0.00083923      -0.00274810      -0.00007433
Ti       2.10082053       6.85123881       8.68617969        0      -0.00249866      -0.00447089      -0.00489562
Ti       3.61114416       5.97290698      11.28994868        0      -0.00041464      -0.00321120       0.00069668
O        2.11678760       6.86353569      12.23008024        3      -0.00329476      -0.00518156      -0.21849769
O        3.60861589       5.97240890       7.75411285        1      -0.00158315      -0.00057215       0.00637808
C        0.58263633       7.73756636       9.95228446        2       0.00100599       0.00037640      -0.00051018
Ti       0.58338647       9.47240168       8.68131499        0      -0.00286364      -0.00543823       0.00200470
Ti       2.10156098       8.59516061      11.28095140        0       0.00223461      -0.00320800       0.00137279
O        0.57864043       9.47377096      12.23008024        3       0.00277373      -0.00010520      -0.26067766
O        2.09397683       8.60206957       7.75176013        1      -0.00084632       0.00121293       0.00214481
C        8.14613236      -0.15426232       9.95921141        2      -0.00087800       0.00026604      -0.00121070
Ti       8.14345715       1.60071596       8.70176511        0       0.00259045       0.00149665       0.00177944
Ti       9.62997657       0.70176033      11.26972870        0       0.00583727       0.00156135       0.00056588
O        8.14021474       1.59150399      12.23008024        3      -0.00059261       0.00155635      -0.22885029
O        9.67253776       0.74729596       7.78223117        1      -0.00370230      -0.00009356      -0.00103935
C        6.63469736       2.47441886       9.95685495        2       0.00174877      -0.00190335       0.00027836
Ti       6.63807071       4.22719870       8.69142373        0      -0.00087201       0.00259387       0.00113986
Ti       8.15516391       3.35005754      11.28931477        0      -0.00087500      -0.00089127      -0.00082960
O        6.62246711       4.23589361      12.23008024        3       0.00156853       0.00128618      -0.20034250
O        8.17097394       3.34580377       7.78339208        1       0.00164770       0.00076861      -0.00270929
C        5.12471738       5.09992147       9.95179556        2      -0.00086496       0.00121736       0.00002840
Ti       5.12488199       6.84590834       8.68164982        0      -0.00053367       0.00317474       0.00020897
Ti       6.63809348       5.97128599      11.28936478        0       0.00076208       0.00279486       0.00016610
O        5.12488750       6.84219303      12.23008024        3      -0.00112570      -0.00277131      -0.23507737
O        6.64064474       5.97152216       7.75425209        1       0.00204077      -0.00066330       0.00263058
C        3.61033683       7.72453944       9.94429364        2       0.00020962      -0.00252334       0.00124053
Ti       3.61685465       9.46772107       8.67952181        0       0.00197687       0.00013756      -0.00120814
Ti       5.12437512       8.59205296      11.27815625        0       0.00120518       0.00267775       0.00184741
O        3.60711494       9.44563354      12.23008024        3      -0.00063847      -0.00046365      -0.27533335
O        5.12471027       8.59564460       7.74456698        1       0.00054725       0.00410191       0.00656090
C        1.49785359       0.30766640      15.39240815       10      -0.00320588       0.00085259       0.08444152
C        2.70426884       1.01290273      15.40079638       10      -0.00152788       0.00103746       0.07390416
C        0.30450553       2.39760937      15.36803748       10       0.00128353      -0.00124914       0.54718120
C        1.49165940       3.10934840      15.37567622       10       0.00117158      -0.00124128       0.10738387
C       -0.93622814       4.54479173      15.36803193       10      -0.00005869       0.00282545       0.21703918
C        0.27453873       5.21769615      15.37567366       10       0.00017223       0.00172790       0.09430995
C       -2.14973370       6.62127459      15.39240760       10       0.00019276       0.00051342       0.09027272
C       -0.93640420       7.31448274      15.40079618       10       0.00193868      -0.00058029       0.09159370
C       -3.35947928       8.71038880      15.39051521       10       0.00016323      -0.00076190       0.09854193
C       -2.14774286       9.41128943      15.40180487       10       0.00037616      -0.00120372       0.08078529
C        3.91516259       0.31290542      15.40282989       10      -0.00162545      -0.00165606       0.10077485
C        5.12378569       1.01388552      15.40180478       10      -0.00000687      -0.00152395       0.07795527
C        2.71030284       2.40979276      15.39240836       10       0.00079026       0.00008687       0.07751937
C        3.91494506       3.11376135      15.38334823       10      -0.00101980       0.00067135       0.07194977
C        1.49155448       4.51568566      15.34954834       10      -0.00182299      -0.00161272       0.04256264
C        2.70002454       5.21174812      15.36121829       10      -0.00197084      -0.00077729       0.04589930
C        0.27702238       6.62135632      15.39240760       10       0.00173459       0.00045488       0.09023529
C        1.48922768       7.31315289      15.38334833       10       0.00153113      -0.00208657       0.07729307
C       -0.93637213       8.71435742      15.40283010       10       0.00050166      -0.00094767       0.13244194
C        0.27502965       9.41132046      15.40180487       10       0.00040497      -0.00076001       0.08077205
C        6.33234304       0.31288682      15.40282989       10       0.00247154      -0.00013546       0.10061395
C        7.54332527       1.01291748      15.40079638       10       0.00193534       0.00035344       0.07413927
C        5.12389123       2.41382500      15.39051508       10      -0.00247871      -0.00060057       0.08709500
C        6.33278948       3.11374164      15.38334823       10      -0.00220561      -0.00033234       0.07190562
C        3.91363764       4.51272078      15.36946473       10      -0.00108140       0.00003512       0.06980463
C        5.12370779       5.21294797      15.36667687       10       0.00101320      -0.00190976       0.12471447
C        2.70086005       6.61168394      15.36946463       10       0.00108888      -0.00033496       0.06924134
C        3.91288037       7.30936894      15.36667676       10       0.00000684       0.00268429       0.08171030
C        1.48677786       8.71058443      15.39051521       10      -0.00034201      -0.00299638       0.09846272
C        2.69805642       9.40693199      15.38334808       10      -0.00084418      -0.00092665       0.07464414
C        8.74983827       0.30780331      15.39240815       10       0.00048634      -0.00119444       0.08449052
C        9.96494054       1.01145139      15.37567603       10      -0.00112584      -0.00031270       0.19424194
C        7.53740013       2.40975579      15.39240836       10      -0.00223017      -0.00000992       0.07736405
C        8.75605145       3.10923317      15.37567622       10      -0.00217914      -0.00030278       0.10701417
C        6.33378713       4.51263777      15.36946473       10       0.00314967       0.00045898       0.06989938
C        7.54743906       5.21149264      15.36121829       10       0.00232383       0.00302153       0.04572866
C        5.12375242       6.61030883      15.36359887       10      -0.00159510      -0.00094679       0.05673224
C        6.33456703       7.30936617      15.36667676       10      -0.00191546       0.00056560       0.08169892
C        3.91027827       8.70798219      15.36946446       10       0.00200916       0.00314835       0.07375482
C        5.12360097       9.40949433      15.36121788       10       0.00287564       0.00181478       0.04429033
C       11.18389268       0.30840538      15.34954829       10      -0.00240523       0.00024452       0.07605835
C       12.40288691       1.01144038      15.37567603       10      -0.00235475       0.00002099       0.19470685
C        9.94321154       2.39756413      15.36803748       10       0.00005277       0.00046766       0.54419572
C       11.18381236       3.11837403      15.12367822       10       0.00193154      -0.00034931      -0.29600434
C        8.75603802       4.51553187      15.34954834       10      -0.00007603      -0.00035424       0.04246788
C        9.97297817       5.21764255      15.37567366       10      -0.00062388       0.00060197       0.09428426
C        7.54649093       6.61144310      15.36946463       10      -0.00080193       0.00291590       0.06933289
C        8.75804130       7.31293640      15.38334833       10       0.00005476       0.00041894       0.07744374
C        6.33691281       8.70800728      15.36946446       10       0.00251379       0.00023586       0.07401612
C        7.54925819       9.40677325      15.38334808       10       0.00313932       0.00128808       0.07473496
O       11.18475540       3.06904566      13.63352938       11      -0.00140382      -0.00202905      -0.00192627
H       11.18449736       2.05482237      13.32422509       12       0.00174805       0.00270648      -0.00088944
