130
Lattice="12.12 0.0 0.0 -6.06 10.496227893867395 0.0 0.0 0.0 40.0" Properties=species:S:1:pos:R:3:tags:I:1:forces:R:3 energy=-1199.253769415705 stress="0.002815900577670032 3.3863269588881286e-08 -8.099391060813717e-09 3.3863269588881286e-08 0.0028158728805420374 -2.8019051646715334e-09 -8.099391060813717e-09 -2.8019051646715334e-09 0.0018532326096959682" pbc="T T F"
C        0.00000434       0.00000634      10.00122506        2      -0.00001891      -0.00000448      -0.00402548
Ti      -0.00000236       1.74939766       8.68948690        0       0.00000314       0.00001197      -0.00012638
Ti       1.51503210       0.87469840      11.31225862        0       0.00000046      -0.00000756      -0.00341973
O       -0.00006346       1.74978139      12.23008024        3       0.00003118       0.00001392       0.06625449
O        1.51497807       0.87467748       7.76996407        1      -0.00005695      -0.00002351      -0.00462142
C       -1.51499285       2.62405895      10.00106184        2      -0.00002334       0.00003600      -0.00417133
Ti      -1.51501590       4.37344180       8.68946818        0      -0.00001264      -0.00001351      -0.00039258
Ti      -0.00000297       3.49890348      11.31220906        0      -0.00000022       0.00007291      -0.00357447
O       -1.51515666       4.37371047      12.23008024        3       0.00000833      -0.00000192       0.07937965
O        0.00000267       3.49870362       7.76993086        1       0.00000317      -0.00008800      -0.00479688
C       -3.02999651       5.24811848      10.00092403        2      -0.00001264       0.00000103      -0.00431797
Ti      -3.03000173       6.99746735       8.68946734        0      -0.00002585      -0.00000570      -0.00041818
Ti      -1.51497350       6.12283494      11.31214963        0       0.00002914       0.00001169      -0.00374633
O       -3.02988535       6.99725262      12.23008024        3       0.00001902      -0.00000586       0.07990375
O       -1.51500851       6.12279368       7.76988646        1      -0.00003332      -0.00002418      -0.00499613
C       -4.54499684       7.87217587      10.00103791        2       0.00002897      -0.00003788      -0.00419282
Ti      -4.54497746       9.62152469       8.68948840        0       0.00001016       0.00000189      -0.00014827
Ti      -3.02986987       8.74678119      11.31220174        0       0.00006907      -0.00005003      -0.00359876
O       -4.54466879       9.62124360      12.23008024        3       0.00000863       0.00000802       0.06853809
O       -3.03003150       8.74687915       7.76992602        1      -0.00007679       0.00005067      -0.00482887
C        3.02999261      -0.00000312      10.00106670        2       0.00005008      -0.00002532      -0.00417490
Ti       3.03001477       1.74937824       8.68949476        0      -0.00002199      -0.00000965      -0.00022920
Ti       4.54505376       0.87467070      11.31218541        0       0.00000110      -0.00003109      -0.00363947
O        3.03034971       1.74954158      12.23008024        3      -0.00003576       0.00000112       0.07720383
O        4.54497175       0.87469296       7.76991687        1      -0.00005952       0.00003199      -0.00487487
C        1.51499185       2.62405435      10.00108275        2       0.00001579       0.00004825      -0.00416632
Ti       1.51501384       4.37344558       8.68946625        0       0.00001690      -0.00001243      -0.00038209
Ti       3.03001259       3.49879079      11.31218997        0      -0.00001553       0.00001300      -0.00362880
O        1.51513598       4.37372925      12.23008024        3       0.00000458       0.00001049       0.07943166
O        3.02998813       3.49871545       7.76991826        1      -0.00000878      -0.00006272      -0.00486511
C        0.00000340       5.24814048      10.00093813        2       0.00000235       0.00003055      -0.00430922
Ti      -0.00000159       6.99748501       8.68941243        0      -0.00000172      -0.00000488      -0.00057518
Ti       1.51497403       6.12284540      11.31214622        0      -0.00001976       0.00002688      -0.00374354
O       -0.00001065       6.99748289      12.23008024        3       0.00000171      -0.00000124       0.07585499
O        1.51500607       6.12279087       7.76988302        1       0.00002730      -0.00002861      -0.00500081
C       -1.51497641       7.87216823      10.00093499        2       0.00001792      -0.00001868      -0.00431849
Ti      -1.51498084       9.62154641       8.68946122        0      -0.00000459       0.00002348      -0.00041239
Ti       0.00001335       8.74681851      11.31214445        0       0.00000987      -0.00004063      -0.00375219
O       -1.51471896       9.62151796      12.23008024        3       0.00001128      -0.00002153       0.07979371
O       -0.00000341       8.74686679       7.76987958        1      -0.00000555       0.00003422      -0.00501165
C        6.06000256      -0.00001918      10.00091774        2       0.00000054       0.00000532      -0.00431729
Ti       6.06000207       1.74937942       8.68947145        0      -0.00000427       0.00000979      -0.00042847
Ti       7.57496761       0.87467026      11.31217626        0      -0.00002753      -0.00001466      -0.00366189
O        6.06003991       1.74930320      12.23008024        3      -0.00002296       0.00001388       0.07880642
O        7.57502279       0.87469422       7.76990942        1       0.00004613       0.00003484      -0.00490743
C        4.54502642       2.62407277      10.00099428        2      -0.00000048      -0.00000388      -0.00426803
Ti       4.54500694       4.37342722       8.68946874        0      -0.00000050      -0.00000796      -0.00042854
Ti       6.06000587       3.49874443      11.31220278        0      -0.00001331      -0.00000290      -0.00363961
O        4.54497104       4.37350012      12.23008024        3       0.00001100      -0.00000406       0.07822906
O        6.05999893       3.49874099       7.76988844        1      -0.00000328       0.00000201      -0.00496105
C        3.02999099       5.24812312      10.00092083        2       0.00000591      -0.00000028      -0.00431167
Ti       3.03000320       6.99746837       8.68945798        0       0.00003051      -0.00001175      -0.00043591
Ti       4.54498139       6.12277960      11.31217706        0      -0.00001838      -0.00001235      -0.00366400
O        3.02991740       6.99728575      12.23008024        3       0.00001331       0.00001073       0.07997117
O        4.54501582       6.12281390       7.76990639        1       0.00005107       0.00001373      -0.00491390
C        1.51497927       7.87216414      10.00093274        2      -0.00001407      -0.00001546      -0.00432349
Ti       1.51498586       9.62155078       8.68945467        0       0.00000385       0.00002762      -0.00044472
Ti       3.02986798       8.74677795      11.31219042        0      -0.00007142      -0.00004372      -0.00362313
O        1.51477944       9.62155489      12.23008024        3      -0.00000298      -0.00001494       0.07979567
O        3.03003139       8.74687528       7.76991535        1       0.00007058       0.00004136      -0.00486008
C        9.09000349      -0.00001102      10.00102827        2      -0.00004806      -0.00000477      -0.00419222
Ti       9.08998711       1.74937747       8.68949154        0       0.00002571      -0.00000953      -0.00027777
Ti      10.60495865       0.87468661      11.31224691        0      -0.00001648      -0.00000915      -0.00344170
O        9.08968107       1.74949424      12.23008024        3      -0.00000164       0.00000430       0.07863966
O       10.60503003       0.87467821       7.76995881        1       0.00007015      -0.00002133      -0.00465450
C        7.57498045       2.62407356      10.00098578        2      -0.00000780      -0.00000225      -0.00428210
Ti       7.57499662       4.37342681       8.68946578        0       0.00000037      -0.00000111      -0.00044746
Ti       9.08999073       3.49877260      11.31218619        0      -0.00000515       0.00001249      -0.00364308
O        7.57504953       4.37346916      12.23008024        3      -0.00002667      -0.00000155       0.07730758
O        9.09001205       3.49871993       7.76991150        1       0.00001071      -0.00005153      -0.00489400
C        6.06000320       5.24808735      10.00098567        2       0.00000099       0.00000029      -0.00428155
Ti       6.06000043       6.99747373       8.68948902        0      -0.00000079       0.00003067      -0.00029510
Ti       7.57501510       6.12277649      11.31218143        0       0.00000601      -0.00000067      -0.00365158
O        6.05997366       6.99718283      12.23008024        3      -0.00001791       0.00002320       0.07947312
O        7.57498675       6.12281734       7.76990749        1      -0.00004492       0.00002511      -0.00491301
C        4.54499218       7.87217673      10.00102260        2      -0.00002968      -0.00003776      -0.00421983
Ti       4.54497281       9.62152535       8.68948499        0      -0.00000800      -0.00000311      -0.00017466
Ti       6.05998629       8.74681917      11.31224249        0      -0.00000479      -0.00001096      -0.00346127
O        4.54460478       9.62127611      12.23008024        3       0.00000399      -0.00000390       0.07084074
O        6.06000468       8.74688907       7.76995517        1       0.00000900       0.00007752      -0.00467039
C        0.04484095       0.06750685      17.98392639       10       0.00579163       0.00212090      -0.00610334
C        1.25684580       0.76719525      17.98392639       10      -0.00002220       0.00019774      -0.00680226
C       -1.16690618       2.16666199      17.98392639       10       0.00022048       0.00045139      -0.01595110
C        0.04503112       2.86630528      17.98392639       10      -0.00066542       0.00138732      -0.02030519
C       -2.37892653       4.26598701      17.98392639       10       0.00084168      -0.00062046      -0.02758360
C       -1.16700906       4.96563499      17.98392639       10      -0.00044563       0.00036273      -0.03214690
C       -3.59102702       6.36540384      17.98392639       10       0.00117131      -0.00066649      -0.02823026
C       -2.37911951       7.06506198      17.98392639       10       0.00047411      -0.00098239      -0.03272387
C       -4.80300069       8.46467963      17.98392639       10       0.00361256      -0.00025013      -0.01778430
C       -3.59100130       9.16434616      17.98392639       10      -0.00385838      -0.00183978      -0.02233383
C        2.46875498       0.06745218      17.98392639       10       0.00246664       0.00173828      -0.01248611
C        3.68071009       0.76726407      17.98392639       10       0.00348951       0.00108148      -0.01766031
C        1.25693736       2.16658744      17.98392639       10       0.00022861       0.00206085      -0.01307604
C        2.46895761       2.86639041      17.98392639       10      -0.00010966       0.00064453      -0.01512197
C        0.04500187       4.26586628      17.98392639       10       0.00053420       0.00110812      -0.00911050
C        1.25698768       4.96565440      17.98392639       10       0.00048669       0.00036445      -0.03299734
C       -1.16704270       6.36524834      17.98392639       10       0.00153742       0.00075155      -0.01156933
C        0.04493899       7.06504439      17.98392639       10       0.00123616      -0.00066468      -0.03788376
C       -2.37898652       8.46456198      17.98392639       10      -0.00038411       0.00055887      -0.00918379
C       -1.16703450       9.16434713      17.98392639       10       0.00019116      -0.00010893      -0.03418622
C        4.89278408       0.06749896      17.98392639       10       0.00181091      -0.00013692      -0.02336589
C        6.10489486       0.76731421      17.98392639       10       0.00128513       0.00057068      -0.02381664
C        3.68087694       2.16667084      17.98392639       10      -0.00035070       0.00087400      -0.03050831
C        4.89300099       2.86650559      17.98392639       10      -0.00090653       0.00021865      -0.00633473
C        2.46890452       4.26596674      17.98392639       10       0.00018339       0.00004448      -0.02488949
C        3.68103718       4.96577484      17.98392639       10      -0.00018332      -0.00005820      -0.02161028
C        1.25694733       6.36529487      17.98392639       10       0.00091161      -0.00022436      -0.00904827
C        2.46908182       7.06510465      17.98392639       10       0.00035367      -0.00087963      -0.03423796
C        0.04508592       8.46456727      17.98392639       10      -0.00127704      -0.00056005      -0.00736496
C        1.25719938       9.16434744      17.98392639       10      -0.00180206       0.00014592      -0.03484851
C        7.31701145       0.06749785      17.98392639       10      -0.00018323       0.00011911      -0.02418599
C        8.52903155       0.76734648      17.98392639       10       0.00039004      -0.00055024      -0.01920988
C        6.10504046       2.16671786      17.98392639       10      -0.00122700       0.00067046      -0.03602131
C        7.31708727       2.86656638      17.98392639       10      -0.00152991      -0.00074102      -0.00613492
C        4.89297070       4.26607270      17.98392639       10      -0.00048118      -0.00037091      -0.03654349
C        6.10500965       4.96590981      17.98392639       10      -0.00052794      -0.00110597      -0.00517942
C        3.68097868       6.36541710      17.98392639       10       0.00010913      -0.00065718      -0.02637033
C        4.89306575       7.06523521      17.98392639       10      -0.00023083      -0.00206911      -0.01775200
C        2.46923715       8.46462822      17.98392639       10      -0.00348875      -0.00108128      -0.00816653
C        3.68127126       9.16444088      17.98392639       10      -0.00246287      -0.00174096      -0.02496165
C        9.74098969       0.06754058      17.98392639       10       0.00385209       0.00183674      -0.01444416
C       10.95303841       0.76724856      17.98392639       10      -0.00360781       0.00025737      -0.00781707
C        8.52914250       2.16672158      17.98392639       10      -0.00047036       0.00099019      -0.03209073
C        9.74108953       2.86642172      17.98392639       10      -0.00116627       0.00068342      -0.01350980
C        7.31703122       4.26610139      17.98392639       10       0.00045584      -0.00035289      -0.03714872
C        8.52898710       4.96577189      17.98392639       10      -0.00083145       0.00063726      -0.01888444
C        6.10496989       6.36551499      17.98392639       10       0.00066986      -0.00138642      -0.03331112
C        7.31693422       7.06516300      17.98392639       10      -0.00021980      -0.00045110      -0.01457083
C        4.89313974       8.46472385      17.98392639       10       0.00001924      -0.00020278      -0.01688801
C        6.10517899       9.16439655      17.98392639       10      -0.00579570      -0.00212660      -0.00781888
