130
Lattice="12.12 0.0 0.0 -6.06 10.496227893867395 0.0 0.0 0.0 40.0" Properties=species:S:1:pos:R:3:tags:I:1:forces:R:3 energy=-1202.2475380305361 stress="0.0028903336064446286 8.342936763229077e-08 4.4981374066647766e-08 8.342936763229077e-08 0.0028904001704266754 3.5635361082684e-07 4.4981374066647766e-08 3.5635361082684e-07 0.002654996884274195" pbc="T T F"
C        0.00001482       0.00003413      10.00565187        2       0.00011213       0.00032057      -0.00549361
Ti       0.00002674       1.74926330       8.71780143        0      -0.00012391      -0.00053339      -0.00142760
Ti       1.51499117       0.87471626      11.30731623        0      -0.00133405      -0.00133054       0.00758549
O        0.00007165       1.74906986      12.23008024        3       0.00045357       0.00128905      -0.08122355
O        1.51507420       0.87471761       7.78017628        1       0.00016512       0.00018446       0.00179781
C       -1.51511278       2.62406400      10.00569839        2      -0.00007504       0.00061500      -0.00476476
Ti      -1.51493653       4.37334805       8.71810983        0      -0.00000429      -0.00018073      -0.00140417
Ti       0.00001450       3.49813983      11.30621383        0      -0.00106584      -0.00194280       0.00655454
O       -1.51462641       4.37244734      12.23008024        3       0.00069612       0.00015171      -0.06827592
O        0.00000397       3.49902313       7.78039881        1       0.00007985       0.00008903       0.00144920
C       -3.03011506       5.24810958      10.00621029        2       0.00011987      -0.00016511      -0.00409812
Ti      -3.03003648       6.99755591       8.71815483        0      -0.00022970       0.00038282      -0.00183252
Ti      -1.51549088       6.12243149      11.30688220        0      -0.00109490       0.00029664       0.00650558
O       -3.03068994       6.99823767      12.23008024        3       0.00025746      -0.00012579      -0.06702189
O       -1.51486219       6.12290764       7.78079696        1      -0.00001432       0.00003094       0.00139112
C       -4.54503284       7.87213352      10.00572454        2       0.00008519      -0.00052907      -0.00524574
Ti      -4.54505781       9.62164194       8.71783984        0      -0.00031308       0.00010617      -0.00177030
Ti      -3.03043631       8.74709357      11.30622034        0      -0.00135320       0.00049267       0.00779223
O       -4.54515440       9.62186620      12.23008024        3       0.00046939       0.00014144      -0.08278669
O       -3.02974412       8.74674265       7.78043257        1       0.00005672       0.00000927       0.00180226
C        3.03002114       0.00006171      10.00579239        2       0.00053869       0.00062521      -0.00484947
Ti       3.02974221       1.74922934       8.71785827        0      -0.00045490      -0.00055262      -0.00104912
Ti       4.54493156       0.87527081      11.30596386        0      -0.00039723      -0.00054123       0.00601482
O        3.02935282       1.74898439      12.23008024        3       0.00052050       0.00097699      -0.07535680
O        4.54514264       0.87459448       7.78034878        1       0.00002440       0.00014125       0.00128576
C        1.51508151       2.62404132      10.00570266        2       0.00061278       0.00085527      -0.00407553
Ti       1.51497158       4.37335903       8.71818920        0      -0.00032039      -0.00021925      -0.00110104
Ti       3.03035261       3.49861969      11.30579705        0      -0.00007679      -0.00136640       0.00526638
O        1.51466836       4.37223824      12.23008024        3       0.00040086       0.00037244      -0.06672942
O        3.03000926       3.49890061       7.78028795        1       0.00004038       0.00006124       0.00107781
C       -0.00001235       5.24814120      10.00656159        2       0.00053847       0.00028180      -0.00371439
Ti       0.00001267       6.99749384       8.71879625        0      -0.00024888       0.00014996      -0.00188532
Ti       1.51546921       6.12237994      11.30727595        0      -0.00009047       0.00074670       0.00549151
O       -0.00006539       6.99743269      12.23008024        3       0.00057298      -0.00043147      -0.05982837
O        1.51487300       6.12292723       7.78086370        1       0.00002110      -0.00005640       0.00108996
C       -1.51500616       7.87218628      10.00667262        2       0.00068728      -0.00016918      -0.00429576
Ti      -1.51503873       9.62158243       8.71829250        0      -0.00040823      -0.00006099      -0.00159766
Ti      -0.00009116       8.74744566      11.30745432        0      -0.00017996       0.00079870       0.00619459
O       -1.51616312       9.62205026      12.23008024        3       0.00039161       0.00047168      -0.06665289
O        0.00002384       8.74670569       7.78091973        1      -0.00007047       0.00002365       0.00127835
C        6.06001309       0.00009581      10.00630093        2       0.00003390       0.00013712      -0.00395400
Ti       6.05997275       1.74938935       8.71788859        0       0.00011940      -0.00027868      -0.00101062
Ti       7.57519419       0.87526805      11.30575122        0       0.00133938       0.00025537       0.00605173
O        6.05989493       1.74877913      12.23008024        3      -0.00054085       0.00028786      -0.06336748
O        7.57487410       0.87458372       7.78033262        1      -0.00007627       0.00015196       0.00131269
C        4.54507702       2.62411267      10.00585705        2       0.00000971       0.00062330      -0.00332839
Ti       4.54497573       4.37337715       8.71775255        0       0.00005148       0.00024836      -0.00079762
Ti       6.05996389       3.49887059      11.30556676        0       0.00117755      -0.00027493       0.00491608
O        4.54456328       4.37350351      12.23008024        3      -0.00075269       0.00013768      -0.06571377
O        6.06001333       3.49875983       7.78024637        1      -0.00001167       0.00009771       0.00094069
C        3.03010265       5.24813122      10.00620688        2      -0.00008155      -0.00019788      -0.00305091
Ti       3.03003323       6.99749803       8.71817516        0       0.00019011       0.00053122      -0.00123634
Ti       4.54553773       6.12279962      11.30542912        0       0.00131302       0.00142031       0.00575978
O        3.03085900       6.99807363      12.23008024        3      -0.00036188      -0.00083573      -0.06672883
O        4.54486528       6.12275035       7.78025246        1       0.00004685      -0.00001386       0.00124815
C        1.51497525       7.87218788      10.00677080        2      -0.00011725      -0.00047537      -0.00372844
Ti       1.51501127       9.62158376       8.71825685        0       0.00032345       0.00010195      -0.00133833
Ti       3.03024790       8.74696597      11.30624779        0       0.00150117       0.00173839       0.00678426
O        1.51592488       9.62212682      12.23008024        3      -0.00018116      -0.00019770      -0.06744435
O        3.02972456       8.74672904       7.78046560        1       0.00000486      -0.00006041       0.00149804
C        9.08999001       0.00005592      10.00580137        2      -0.00059591      -0.00001194      -0.00479997
Ti       9.09026566       1.74921535       8.71780191        0       0.00044211      -0.00024398      -0.00117653
Ti      10.60530002       0.87460118      11.30713170        0       0.00030912      -0.00062448       0.00752280
O        9.09107250       1.74871321      12.23008024        3      -0.00015768       0.00020806      -0.07217050
O       10.60492455       0.87470948       7.78015548        1      -0.00008251       0.00012649       0.00180649
C        7.57501573       2.62412302      10.00591588        2      -0.00062539       0.00026440      -0.00379195
Ti       7.57501437       4.37341190       8.71771778        0       0.00032387       0.00030967      -0.00132473
Ti       9.08975531       3.49859419      11.30543075        0       0.00007639      -0.00101235       0.00615759
O        7.57515089       4.37351103      12.23008024        3      -0.00055135      -0.00030546      -0.06677389
O        9.08999770       3.49887882       7.78022049        1      -0.00008187       0.00013139       0.00139589
C        6.06004280       5.24818088      10.00593271        2      -0.00052487      -0.00063311      -0.00360240
Ti       6.05999184       6.99779614       8.71772910        0       0.00025514       0.00069938      -0.00141659
Ti       7.57456728       6.12283105      11.30539381        0       0.00003119       0.00078395       0.00649590
O        6.05995677       6.99933414      12.23008024        3      -0.00047553      -0.00060736      -0.07088677
O        7.57511830       6.12274845       7.78021144        1      -0.00003456      -0.00001423       0.00156718
C        4.54503400       7.87217645      10.00572859        2      -0.00052850      -0.00082124      -0.00459177
Ti       4.54502586       9.62158846       8.71786679        0       0.00044949       0.00032972      -0.00153789
Ti       6.06005083       8.74733244      11.30681860        0      -0.00004918       0.00114789       0.00788951
O        4.54525441       9.62182350      12.23008024        3      -0.00064943      -0.00044216      -0.08295626
O        6.05999252       8.74680877       7.78011843        1      -0.00000638      -0.00013957       0.00193183
C        0.04504663       0.06750683      16.01469562       10      -0.00382881      -0.00257087      -0.01966651
C        1.25721357       0.76735641      16.01469562       10       0.00150433       0.00063851       0.04036139
C       -1.16737317       2.16712389      16.01469562       10       0.00057943      -0.00535360       0.00428614
C        0.04493695       2.86680817      16.01469562       10       0.00047102       0.00087837       0.03250428
C       -2.37915038       4.26615693      16.01469562       10      -0.00014080      -0.00309450       0.01973744
C       -1.16702142       4.96578289      16.01469562       10       0.00137686       0.00117508       0.01296114
C       -3.59081523       6.36511793      16.01469562       10      -0.00147509      -0.00348460       0.02186566
C       -2.37879348       7.06490546      16.01469562       10      -0.00139344       0.00240484       0.01246030
C       -4.80291092       8.46408142      16.01469562       10      -0.00160479      -0.00121395       0.00710202
C       -3.59086036       9.16413172      16.01469562       10       0.00451882      -0.00128559       0.03168718
C        2.46942344       0.06751138      16.01469562       10      -0.00245929       0.00177371       0.00381254
C        3.68130376       0.76729321      16.01469562       10      -0.00297776      -0.00331138       0.02535325
C        1.25715011       2.16707959      16.01469562       10       0.00075171      -0.00376803       0.00149755
C        2.46910400       2.86661246      16.01469562       10      -0.00128668       0.00113614       0.02931760
C        0.04508166       4.26629249      16.01469562       10      -0.00137591      -0.00207771       0.03611036
C        1.25711320       4.96582119      16.01469562       10      -0.00078228       0.00181788       0.01273743
C       -1.16685086       6.36519250      16.01469562       10      -0.00648430      -0.00204238       0.05375288
C        0.04519771       7.06491721      16.01469562       10      -0.00201522       0.00063019       0.00225699
C       -2.37876413       8.46442115      16.01469562       10      -0.00141382       0.00136076       0.03744034
C       -1.16686259       9.16420827      16.01469562       10       0.00105041      -0.00566401       0.01232723
C        4.89333132       0.06739988      16.01469562       10      -0.00197857       0.00558373       0.02445846
C        6.10507040       0.76739778      16.01469562       10      -0.00258644      -0.00393534       0.01872109
C        3.68121168       2.16690958      16.01469562       10       0.00235055      -0.00046194       0.01176925
C        4.89285193       2.86660821      16.01469562       10       0.00164181      -0.00213864       0.01892167
C        2.46912675       4.26617462      16.01469562       10       0.00224432       0.00002083       0.02041676
C        3.68108469       4.96577848      16.01469562       10      -0.00245986      -0.00015654       0.02028476
C        1.25721914       6.36516008      16.01469562       10      -0.00158605       0.00175140       0.05647077
C        2.46901403       7.06496573      16.01469562       10      -0.00242032       0.00065628       0.01165047
C        0.04494183       8.46438250      16.01469562       10       0.00260464       0.00336817       0.05822928
C        1.25675065       9.16421867      16.01469562       10       0.00193747      -0.00580139       0.01156950
C        7.31686199       0.06740612      16.01469562       10      -0.00101468       0.00533257       0.02940545
C        8.52883876       0.76728980      16.01469562       10       0.00102620      -0.00154453       0.02279924
C        6.10477173       2.16689010      16.01469562       10       0.00188689      -0.00060753       0.02125503
C        7.31664170       2.86650222      16.01469562       10       0.00646891       0.00169111       0.01420713
C        4.89303311       4.26602774      16.01469562       10       0.00059135      -0.00192879       0.01971943
C        6.10494185       4.96563259      16.01469562       10       0.00153923       0.00167645       0.01074310
C        3.68095440       6.36518573      16.01469562       10       0.00124697      -0.00145686       0.02740162
C        4.89304443       7.06478653      16.01469562       10      -0.00074259       0.00353335       0.02383402
C        2.46872015       8.46443949      16.01469562       10       0.00331325       0.00307170       0.03934090
C        3.68072030       9.16416222      16.01469562       10       0.00228622      -0.00170672       0.03008450
C        9.74072333       0.06752536      16.01469562       10      -0.00448383       0.00132881       0.00843823
C       10.95279159       0.76738533      16.01469562       10       0.00119663       0.00105650       0.03710631
C        8.52846298       2.16690430      16.01469562       10       0.00135433      -0.00214135       0.01447110
C        9.74065085       2.86654178      16.01469562       10       0.00142759       0.00328726       0.03065309
C        7.31684297       4.26594466      16.01469562       10      -0.00112371      -0.00113114       0.01753765
C        8.52889046       4.96565655      16.01469562       10       0.00053051       0.00315759       0.02123635
C        6.10503797       6.36487197      16.01469562       10      -0.00049486      -0.00135817       0.01642642
C        7.31707036       7.06472541      16.01469562       10      -0.00066204       0.00515520       0.02800201
C        4.89280185       8.46412641      16.01469562       10      -0.00123639      -0.00073925       0.00879372
C        6.10490614       9.16390005      16.01469562       10       0.00362754       0.00253698       0.03550041
