131
Lattice="12.12 0.0 0.0 -6.06 10.496227893867395 0.0 0.0 0.0 40.0" Properties=species:S:1:pos:R:3:tags:I:1:forces:R:3 stress="0.0028129942754778286 -8.264900676703295e-06 8.806777528630385e-06 -8.264900676703295e-06 0.002803122899971123 1.5745755097412626e-06 8.806777528630385e-06 1.5745755097412626e-06 0.002676390992830323" energy=-1205.0789097224215 pbc="T T F"
C        0.00224944      -0.00020283       9.99945458        2       0.00233243      -0.00058380       0.00317423
Ti       0.00373181       1.74980155       8.69949169        0       0.00157359      -0.00050132      -0.00306762
Ti       1.52564165       0.88239628      11.30880497        0       0.00107410       0.00249555       0.00076629
O        0.00159084       1.74836889      12.23008024        3       0.00263765      -0.00172655      -0.05250082
O        1.51952461       0.86877445       7.78391862        1       0.00020160      -0.00091118       0.00118701
C       -1.51330967       2.62277963       9.99248050        2       0.00140406       0.00016369       0.00136675
Ti      -1.51412959       4.37741168       8.69766779        0       0.00167307       0.00108704      -0.00281743
Ti      -0.00142978       3.49794444      11.32319932        0       0.00017397      -0.00042266       0.00324752
O       -1.51515454       4.36697420      12.23008024        3       0.00087337       0.00268793      -0.00756717
O        0.00076127       3.49824068       7.77495067        1       0.00072097       0.00024077       0.00051993
C       -3.03195321       5.23775607       9.98954677        2       0.00102328       0.00218055       0.00289117
Ti      -3.03334907       6.99050288       8.72654797        0       0.00211258       0.00105760      -0.00596839
Ti      -1.50726342       6.12517180      11.31508683        0       0.00218678       0.00058876       0.00136665
O       -3.04288288       6.93705153      12.23008024        3       0.00062344       0.00111197      -0.22527204
O       -1.51741300       6.13131409       7.78661485        1       0.00137176      -0.00054413       0.00121652
C       -4.54429488       7.86738772      10.01725018        2      -0.00002445       0.00003316      -0.00096346
Ti      -4.54719098       9.62366025       8.72113222        0       0.00335362      -0.00122716      -0.00538671
Ti      -2.99049233       8.73188574      11.49059797        0      -0.00034152       0.00127264       0.00315881
O       -4.55301057       9.62901884      12.23008024        3       0.00063321       0.00012893       0.04703058
O       -3.02678591       8.74646269       7.82323183        1       0.00204322      -0.00006211      -0.00057176
C        3.03613367       0.00454483      10.01718965        2       0.00067032       0.00098839      -0.00009606
Ti       3.03081176       1.74609361       8.71041565        0       0.00038889      -0.00020091      -0.00678935
Ti       4.54799729       0.90112096      11.29520859        0       0.00011676       0.00300733      -0.00237802
O        3.02938715       1.76106692      12.23008024        3      -0.00020199       0.00058379       0.01695516
O        4.54276348       0.87052129       7.78034357        1       0.00144786       0.00105075       0.00040116
C        1.51427614       2.63004267       9.99346221        2      -0.00023604      -0.00084910       0.00085757
Ti       1.51410958       4.37570663       8.69730403        0      -0.00031245      -0.00044941      -0.00276250
Ti       3.02890808       3.50295793      11.31468277        0       0.00127431      -0.00092472       0.00465235
O        1.51282652       4.37257607      12.23008024        3      -0.00033499      -0.00070725      -0.01757948
O        3.02791602       3.49428726       7.77402869        1       0.00192988       0.00102714       0.00310703
C        0.00083929       5.24500840       9.99507648        2       0.00073421      -0.00075879       0.00026721
Ti      -0.00321810       7.00063961       8.71423770        0       0.00165788      -0.00053859      -0.00832148
Ti       1.51860241       6.12225915      11.31348801        0       0.00256528      -0.00057326       0.00166170
O        0.01433045       6.99109436      12.23008024        3       0.00153075      -0.00056666      -0.02199065
O        1.50786998       6.12803958       7.77881059        1       0.00370394      -0.00111909       0.00067432
C       -1.51572004       7.87490398      10.03479604        2       0.00351512      -0.00103899       0.00019344
Ti      -1.50866393       9.62979819       8.72788701        0       0.00120613      -0.00090079      -0.00611020
Ti       0.00399204       8.74189705      11.31471366        0       0.00180647      -0.00148266       0.00160839
O       -1.45897521       9.67426724      12.23008024        3       0.00098407       0.00087912      -0.31000930
O       -0.00692426       8.74648890       7.78644197        1       0.00193749      -0.00027721       0.00092086
C        6.07159691       0.01018205       9.98714147        2      -0.00049373      -0.00063507       0.00194933
Ti       6.06289858       1.74881597       8.69087407        0       0.00126635      -0.00204341      -0.00327522
Ti       7.57560332       0.87809604      11.31866809        0      -0.00049656      -0.00123215       0.00523482
O        6.06770168       1.75507753      12.23008024        3      -0.00092227      -0.00309928      -0.04532620
O        7.57822612       0.87439550       7.77207088        1       0.00070725      -0.00084454       0.00208323
C        4.54890662       2.63474546       9.99099372        2       0.00180435      -0.00024185       0.00279017
Ti       4.54431261       4.37445058       8.68438102        0       0.00199524       0.00036453      -0.00373051
Ti       6.05980589       3.50071647      11.30805297        0       0.00454191      -0.00160721       0.00565716
O        4.54350993       4.37492357      12.23008024        3       0.00338465      -0.00083909      -0.04989429
O        6.06012407       3.50048835       7.76629814        1       0.00138684      -0.00011522       0.00332797
C        3.03091531       5.24856193       9.99274089        2       0.00216844      -0.00020565       0.00229089
Ti       3.02849958       6.99823069       8.69742119        0       0.00119248       0.00198431      -0.00296837
Ti       4.54283025       6.12336301      11.31450832        0       0.00200420       0.00024874       0.00455824
O        3.03105325       7.00097690      12.23008024        3       0.00180388       0.00180406      -0.02195802
O        4.54903613       6.12833347       7.77443067        1       0.00094290      -0.00043564       0.00330264
C        1.51985232       7.87465311       9.99552226        2       0.00156208       0.00081033       0.00045505
Ti       1.51372689       9.62104610       8.69682699        0       0.00018116      -0.00044914      -0.00284821
Ti       3.03223994       8.75011412      11.32273246        0       0.00139620       0.00171385       0.00364937
O        1.52251614       9.62764953      12.23008024        3      -0.00147744      -0.00094448      -0.01568057
O        3.03247484       8.74739451       7.77471419        1       0.00063902       0.00071988       0.00045177
C        9.09380642       0.00056267       9.99230894        2       0.00128279       0.00006466       0.00127610
Ti       9.09448767       1.74854664       8.70194664        0       0.00134418       0.00017906      -0.00513672
Ti      10.60928368       0.87299855      11.31850552        0       0.00323246      -0.00139297       0.00463804
O        9.09476541       1.74811704      12.23008024        3       0.00156287       0.00009908      -0.02446943
O       10.61007804       0.87280886       7.77562101        1       0.00214969      -0.00048678       0.00125606
C        7.57681489       2.62513225       9.98893948        2       0.00198780      -0.00018931       0.00093244
Ti       7.57752577       4.37330517       8.69171247        0       0.00256772       0.00097444      -0.00315879
Ti       9.08827751       3.49867742      11.31869591        0       0.00135753       0.00233004       0.00536440
O        7.57477275       4.36601316      12.23008024        3       0.00303751       0.00456129      -0.04546951
O        9.09280391       3.49882647       7.77269874        1       0.00169426       0.00147263       0.00245730
C        6.05419742       5.24156365       9.99207812        2       0.00201005      -0.00043457       0.00266423
Ti       6.06386247       6.99989209       8.71150325        0       0.00120140       0.00083021      -0.00556132
Ti       7.55722083       6.11091122      11.29495097        0      -0.00124205       0.00010409      -0.00224035
O        6.05221805       6.99362439      12.23008024        3       0.00073073       0.00069008       0.02257898
O        7.57854424       6.12888674       7.78073901        1       0.00112879      -0.00076630       0.00081449
C        4.54127498       7.87108708       9.99409290        2       0.00126736       0.00190678       0.00112877
Ti       4.54729976       9.61972809       8.69935418        0       0.00183908       0.00029446      -0.00344470
Ti       6.06148787       8.73543627      11.30977150        0      -0.00092140      -0.00109399       0.00072328
O        4.54885093       9.62298127      12.23008024        3       0.00411109      -0.00065808      -0.04194715
O        6.06836714       8.74725300       7.78431124        1       0.00138778       0.00150465       0.00104427
C        0.03936678       0.06932449      16.10021542       10      -0.00285069       0.00249876      -0.01555450
C        1.24600842       0.77043713      16.08492337       10      -0.00660229       0.00147442       0.01248547
C       -1.17094224       2.16633009      16.10553612       10       0.00103463      -0.00138765      -0.00692981
C        0.04005467       2.86580240      16.08782569       10      -0.00060519      -0.00167839       0.02051960
C       -2.38212778       4.26459656      16.10021542       10       0.00145706      -0.00296031       0.03250988
C       -1.17221417       4.95892405      16.08492337       10      -0.00008475      -0.00076202       0.02192894
C       -3.58943803       6.36656645      16.03710467       10      -0.00121605      -0.00044465       0.08599685
C       -2.38273305       7.04691859      15.99528245       10      -0.00400129       0.00105698      -0.33721982
C       -4.80474536       8.47076588      16.03710467       10       0.00074823       0.00118274       0.09458505
C       -3.61497927       9.17603957      15.99528245       10      -0.00465085       0.00115427      -0.22010525
C        2.46140298       0.06257134      16.03710467       10      -0.00595844       0.00416733       0.09108403
C        3.67676150       0.76843065      16.00502599       10      -0.00549183       0.00059538      -0.02740559
C        1.25137748       2.16783417      16.07388040       10      -0.00106999      -0.00012861      -0.00113799
C        2.46372500       2.86563904      16.05196599       10      -0.00062774      -0.00201259       0.02010710
C        0.04130331       4.26562652      16.07388040       10       0.00056317      -0.00173490       0.04081185
C        1.25192501       4.96477885      16.05196599       10      -0.00050781      -0.00082553       0.01542811
C       -1.17678028       6.36698653      16.03710467       10      -0.00361443       0.00157632       0.12087638
C        0.04306100       7.06414360      16.00502599       10      -0.00433187      -0.00013601      -0.03224918
C       -2.38991875       8.46643070      15.54247679       10      -0.00342618       0.00096880       0.62614188
C       -1.15671739       9.17268845      15.99528245       10      -0.00371922      -0.00121178      -0.38340111
C        4.89040032       0.06166759      16.03710467       10      -0.00656010       0.00120109       0.07831783
C        6.10722961       0.76911410      16.08492337       10      -0.00364934      -0.00237248       0.03254729
C        3.67645958       2.16356384      16.03735970       10      -0.00161669      -0.00109972      -0.00894074
C        4.89052629       2.86583900      16.05196599       10       0.00064651      -0.00302212       0.03028541
C        2.46519976       4.26642210      16.04928438       10      -0.00081448      -0.00189484       0.00465886
C        3.67719126       4.96636826      16.04428361       10      -0.00101134      -0.00116954       0.00158540
C        1.25095656       6.36701062      16.03735970       10      -0.00359683       0.00135575       0.01349086
C        2.46558867       7.06734818      16.05196599       10      -0.00159128      -0.00041416       0.01438046
C        0.03591278       8.46888295      16.03710467       10      -0.00322984       0.00012839       0.10762794
C        1.25787703       9.16943014      16.08492337       10       0.00015435      -0.00213986       0.01629257
C        7.31463069       0.06813115      16.10021542       10      -0.00216265       0.00044334       0.03929345
C        8.52805239       0.76899048      16.10715394       10      -0.00247684       0.00054078       0.02306988
C        6.10195387       2.16689612      16.07388040       10       0.00064664      -0.00222684       0.01798078
C        7.31431612       2.86595194      16.08782569       10      -0.00048443      -0.00166374       0.02028291
C        4.88866840       4.26657382      16.04928438       10      -0.00083499      -0.00080035      -0.00280192
C        6.10289850       4.96538965      16.05196599       10      -0.00238050       0.00148843       0.03232019
C        3.67719870       6.36588349      16.04928438       10      -0.00219556      -0.00062944       0.00307686
C        4.88963888       7.06749733      16.05196599       10      -0.00231918      -0.00092353       0.02353079
C        2.46536911       8.46548702      16.07388040       10       0.00010494      -0.00132918       0.04739593
C        3.67729787       9.16655292      16.08782569       10       0.00042476      -0.00258338       0.01793415
C        9.73766104       0.06862202      16.10553612       10      -0.00217701       0.00149354       0.00002446
C       10.94666603       0.76939710      16.10715394       10      -0.00687298       0.00177873       0.01874655
C        8.52680027       2.16598919      16.10553612       10      -0.00004332       0.00105680       0.00911913
C        9.73743254       2.86358967      16.10715394       10      -0.00163287       0.00014475       0.02643267
C        7.31378980       4.26524982      16.07388040       10      -0.00253982       0.00036853       0.01833380
C        8.52693431       4.95957732      16.08492337       10      -0.00269574       0.00103400       0.03606441
C        6.10387436       6.36783920      16.03735970       10      -0.00208259       0.00156578      -0.00684036
C        7.31235847       7.06519406      16.00502599       10      -0.00404431       0.00243637      -0.01980849
C        4.88751900       8.46645000      16.07388040       10       0.00069994      -0.00094638       0.01164037
C        6.09513843       9.16996956      16.08492337       10      -0.00397061       0.00039422       0.01330166
O       -2.42380270       8.46382423      14.21271490       11      -0.00208549      -0.00276873       0.00159315
