130
Lattice="12.12 0.0 0.0 -6.06 10.496227893867395 0.0 0.0 0.0 40.0" Properties=species:S:1:pos:R:3:tags:I:1:forces:R:3 energy=-1200.6174956901616 stress="0.0027998536397681696 -1.295079206678487e-07 9.845467989566245e-08 -1.295079206678487e-07 0.0028001822073008783 4.249917814951814e-07 9.845467989566245e-08 4.249917814951814e-07 0.002344605200611552" pbc="T T F"
C        0.00004842       0.00004147       9.99997997        2       0.00001264       0.00009018      -0.00742794
Ti       0.00000576       1.74938996       8.69307735        0      -0.00004434       0.00006205      -0.00577055
Ti       1.51425456       0.87427042      11.30874595        0      -0.00063431      -0.00023229      -0.00084558
O        0.00040599       1.74751001      12.23008024        3      -0.00001229      -0.00006284       0.01524116
O        1.51528143       0.87483225       7.76960629        1       0.00067372       0.00031272      -0.00053409
C       -1.51465086       2.62390803      10.00156303        2       0.00056945       0.00001095      -0.00599508
Ti      -1.51505772       4.37338027       8.69434482        0      -0.00034625       0.00008991      -0.00277102
Ti       0.00019874       3.49774337      11.30878745        0       0.00015682      -0.00054052       0.00096172
O       -1.51395235       4.37241401      12.23008024        3       0.00125114       0.00064850      -0.03539422
O       -0.00003168       3.49919602       7.76976095        1      -0.00021401       0.00056257       0.00037488
C       -3.02965827       5.24833578      10.00270787        2       0.00070684       0.00031130      -0.00431499
Ti      -3.03010225       6.99742118       8.69428344        0      -0.00019076      -0.00021281      -0.00243350
Ti      -1.51434964       6.12317504      11.30885101        0       0.00088025       0.00043905       0.00212034
O       -3.03035450       6.99879507      12.23008024        3       0.00138263       0.00088020      -0.03361715
O       -1.51505642       6.12277681       7.76984451        1      -0.00055775      -0.00018656       0.00105302
C       -4.54492896       7.87251933      10.00170905        2       0.00016742       0.00046703      -0.00577097
Ti      -4.54500239       9.62154346       8.69320420        0       0.00006270      -0.00015392      -0.00532421
Ti      -3.03055755       8.74757628      11.30882465        0      -0.00020728       0.00045763       0.00053479
O       -4.54612126       9.62274501      12.23008024        3       0.00015686       0.00053590       0.00635304
O       -3.02966774       8.74658891       7.76972349        1       0.00029488      -0.00052115       0.00045799
C        3.02974056      -0.00012685      10.00126686        2      -0.00013112       0.00000465      -0.00636176
Ti       3.03000945       1.74939555       8.69452707        0       0.00047237       0.00025799      -0.00309024
Ti       4.54410956       0.87393802      11.31134188        0      -0.00061324      -0.00031337       0.00264855
O        3.02843027       1.74864320      12.23008024        3      -0.00099925      -0.00036111      -0.02257343
O        4.54532884       0.87487203       7.77025483        1       0.00089360       0.00078927       0.00218135
C        1.51473312       2.62387369      10.00124853        2      -0.00034302       0.00008793      -0.00611173
Ti       1.51508949       4.37338929       8.69415103        0       0.00017063       0.00014504      -0.00365296
Ti       3.02891415       3.49835794      11.31159724        0      -0.00114342      -0.00009708       0.00305271
O        1.51420814       4.37217426      12.23008024        3      -0.00091821       0.00067393      -0.03176790
O        3.03031297       3.49897489       7.77035212        1       0.00115117       0.00050109       0.00235554
C        0.00005002       5.24817551      10.00174979        2       0.00028344       0.00039817      -0.00631730
Ti      -0.00001183       6.99747379       8.69312444        0      -0.00003165       0.00006515      -0.00456733
Ti       1.51457949       6.12304689      11.30844808        0      -0.00040078       0.00012355       0.00108774
O        0.00019808       6.99786179      12.23008024        3       0.00048649       0.00031741      -0.00586756
O        1.51505703       6.12283522       7.76979999        1       0.00034455      -0.00005144       0.00049835
C       -1.51490648       7.87226373      10.00164520        2       0.00052864       0.00001027      -0.00641963
Ti      -1.51497963       9.62165528       8.69387276        0       0.00013408       0.00009024      -0.00360405
Ti       0.00001338       8.74666308      11.30782432        0      -0.00003857      -0.00013181       0.00103906
O       -1.51646897       9.62183187      12.23008024        3       0.00015980      -0.00100003      -0.02756229
O        0.00005145       8.74685776       7.76967094        1       0.00001653       0.00031116       0.00017393
C        6.06001638      -0.00038068      10.00228504        2      -0.00008411      -0.00049363      -0.00527481
Ti       6.05998703       1.74948185       8.69542974        0       0.00006428       0.00039973       0.00002478
Ti       7.57570685       0.87399696      11.31177882        0       0.00061162      -0.00048239       0.00244137
O        6.05964029       1.74814246      12.23008024        3      -0.00016159      -0.00112937      -0.01314524
O        7.57477598       0.87489263       7.77037380        1      -0.00060918       0.00099787       0.00247189
C        4.54495708       2.62400857      10.00264209        2      -0.00060406      -0.00020358      -0.00354387
Ti       4.54503963       4.37337300       8.69556258        0       0.00045954      -0.00011590       0.00024197
Ti       6.05982462       3.49847922      11.31442721        0      -0.00035626      -0.00016922       0.00456046
O        4.54384187       4.37345493      12.23008024        3      -0.00127348       0.00035308      -0.01205133
O        6.06004484       3.49883239       7.77102347        1       0.00031752       0.00029667       0.00460842
C        3.02965671       5.24834341      10.00247562        2      -0.00058680       0.00022192      -0.00473271
Ti       3.03012434       6.99740544       8.69409415        0       0.00023160      -0.00013165      -0.00330645
Ti       4.54469896       6.12371387      11.31217301        0      -0.00057323       0.00061236       0.00353342
O        3.03062079       6.99851703      12.23008024        3      -0.00110018       0.00077172      -0.02628464
O        4.54507895       6.12250380       7.77048739        1       0.00055449      -0.00092392       0.00297529
C        1.51492414       7.87221586      10.00155979        2      -0.00010233      -0.00003105      -0.00653468
Ti       1.51499879       9.62166418       8.69388326        0      -0.00007587       0.00029384      -0.00358519
Ti       3.03055707       8.74737309      11.30855327        0       0.00003706       0.00015615       0.00097624
O        1.51628867       9.62187209      12.23008024        3      -0.00013286      -0.00112760      -0.02367169
O        3.02968664       8.74663721       7.76974871        1      -0.00023432      -0.00023067       0.00028256
C        9.09027795      -0.00009649      10.00156256        2       0.00002506      -0.00038281      -0.00623074
Ti       9.09002235       1.74939228       8.69483076        0      -0.00040095       0.00032265      -0.00198960
Ti      10.60611268       0.87418728      11.30907746        0       0.00065668      -0.00028283      -0.00048693
O        9.09191362       1.74862531      12.23008024        3       0.00096742      -0.00055475      -0.02617797
O       10.60464766       0.87483631       7.76969258        1      -0.00087588       0.00047519      -0.00014049
C        7.57503859       2.62403911      10.00290651        2       0.00021819      -0.00031440      -0.00325972
Ti       7.57495026       4.37337732       8.69566532        0      -0.00020244      -0.00003580       0.00095372
Ti       9.09107786       3.49849455      11.31235510        0       0.00089754      -0.00008280       0.00297557
O        7.57564623       4.37357344      12.23008024        3       0.00075334       0.00040260      -0.01024995
O        9.08970518       3.49892916       7.77053455        1      -0.00114283       0.00050898       0.00308367
C        6.06002025       5.24812737      10.00303461        2      -0.00027022       0.00036078      -0.00290463
Ti       6.06001488       6.99750149       8.69500485        0       0.00008676      -0.00050378      -0.00142369
Ti       7.57534468       6.12380239      11.31250891        0       0.00028649       0.00056988       0.00358237
O        6.06012584       6.99973124      12.23008024        3      -0.00004996       0.00117644      -0.02692019
O        7.57495322       6.12246128       7.77055495        1      -0.00023433      -0.00107261       0.00338148
C        4.54499446       7.87248508      10.00170626        2      -0.00041322       0.00031869      -0.00572990
Ti       4.54499887       9.62154936       8.69337561        0      -0.00002271      -0.00007724      -0.00503944
Ti       6.06006284       8.74818763      11.30935785        0      -0.00002739       0.00100000      -0.00014206
O        4.54607202       9.62238000      12.23008024        3       0.00014585       0.00041948      -0.00187358
O        6.05996095       8.74643679       7.76973708        1       0.00002362      -0.00116128       0.00017077
C        0.04483787       0.06753284      16.50700332       10       0.00677597       0.00169951       0.00278250
C        1.25666830       0.76705762      16.50700332       10       0.00170742       0.00173760       0.02086323
C       -1.16672822       2.16623509      16.50700332       10       0.00362734      -0.00180717       0.00272155
C        0.04508993       2.86606491      16.50700332       10      -0.00186129       0.00054615       0.00743615
C       -2.37801823       4.26592729      16.50700332       10       0.00368213      -0.00369627       0.00661430
C       -1.16721938       4.96516752      16.50700332       10       0.00051937       0.00091529      -0.00178404
C       -3.59058056       6.36626493      16.50700332       10       0.00514569      -0.00239421       0.00773227
C       -2.37962536       7.06510591      16.50700332       10       0.00061037      -0.00159328      -0.00110061
C       -4.80329339       8.46523556      16.50700332       10       0.00371601      -0.00267062       0.00244049
C       -3.59135188       9.16456887      16.50700332       10      -0.00103842      -0.00377349       0.00368744
C        2.46820099       0.06749660      16.50700332       10       0.00317522       0.00436909       0.00121990
C        3.68022892       0.76714356      16.50700332       10       0.00288616       0.00104059       0.00394626
C        1.25680638       2.16612416      16.50700332       10      -0.00049308       0.00188445       0.00201504
C        2.46864435       2.86600884      16.50700332       10      -0.00040758      -0.00074286       0.00461047
C        0.04514088       4.26510062      16.50700332       10      -0.00012237       0.00088746       0.00529647
C        1.25713658       4.96528971      16.50700332       10      -0.00000848      -0.00023638      -0.00258955
C       -1.16674366       6.36529627      16.50700332       10       0.00044980       0.00305266       0.02166508
C        0.04488265       7.06491537      16.50700332       10      -0.00014968      -0.00097612       0.00016771
C       -2.37957626       8.46514325      16.50700332       10       0.00028799      -0.00022695       0.00764461
C       -1.16727548       9.16465483      16.50700332       10       0.00026238      -0.00353249      -0.00279659
C        4.89228890       0.06666096      16.50700332       10       0.00095846       0.00308547       0.00814962
C        6.10483149       0.76773953      16.50700332       10       0.00098703       0.00097631       0.00734483
C        3.68001782       2.16609855      16.50700332       10      -0.00140624      -0.00067050       0.00006789
C        4.89249312       2.86628396      16.50700332       10      -0.00000048      -0.00216413       0.01492961
C        2.46798071       4.26585162      16.50700332       10      -0.00007650      -0.00070391       0.00658207
C        3.68130572       4.96546815      16.50700332       10       0.00024421       0.00019499       0.01085793
C        1.25672053       6.36525895      16.50700332       10       0.00007779       0.00180051       0.02296732
C        2.46946059       7.06507118      16.50700332       10       0.00135588       0.00032676      -0.00161812
C        0.04501335       8.46437766      16.50700332       10      -0.00109090      -0.00110986       0.02493717
C        1.25736432       9.16466704      16.50700332       10      -0.00106095      -0.00310465      -0.00272459
C        7.31739901       0.06651260      16.50700332       10      -0.00029329       0.00353400       0.00958041
C        8.52950333       0.76723739      16.50700332       10      -0.00017195      -0.00003140       0.00451756
C        6.10483329       2.16599883      16.50700332       10       0.00024634       0.00084950       0.00766135
C        7.31728194       2.86640159      16.50700332       10      -0.00037812      -0.00318426       0.01740540
C        4.89228995       4.26616005      16.50700332       10       0.00016315      -0.00018543       0.00721577
C        6.10494796       4.96604650      16.50700332       10       0.00006142      -0.00100317       0.01953136
C        3.68030202       6.36617919      16.50700332       10       0.00027934       0.00020399       0.00885981
C        4.89330250       7.06562356      16.50700332       10       0.00014950      -0.00221672       0.00625499
C        2.46981110       8.46505476      16.50700332       10      -0.00304679      -0.00126864       0.01078076
C        3.68163365       9.16465074      16.50700332       10      -0.00324672      -0.00454786      -0.00073271
C        9.74166247       0.06747996      16.50700332       10       0.00109456       0.00362837       0.00091545
C       10.95318743       0.76704799      16.50700332       10      -0.00369935       0.00268099       0.01845485
C        8.52984275       2.16601786      16.50700332       10      -0.00053680       0.00141264       0.00322702
C        9.74142170       2.86585681      16.50700332       10      -0.00527368       0.00233682       0.00562725
C        7.31748403       4.26622799      16.50700332       10      -0.00051639      -0.00100204       0.00809283
C        8.52873844       4.96547097      16.50700332       10      -0.00380128       0.00362086       0.01450793
C        6.10480803       6.36631807      16.50700332       10       0.00163257      -0.00076846       0.00560490
C        7.31663726       7.06556240      16.50700332       10      -0.00364406       0.00163968       0.00652589
C        4.89346069       8.46531514      16.50700332       10      -0.00181775      -0.00191012       0.00158682
C        6.10517906       9.16458848      16.50700332       10      -0.00688723      -0.00183237       0.01671284
