130
Lattice="12.12 0.0 0.0 -6.06 10.496227893867395 0.0 0.0 0.0 40.0" Properties=species:S:1:pos:R:3:tags:I:1:forces:R:3 energy=-1200.4925258100577 stress="0.002795249654047851 -1.978620912304899e-07 2.7697601407285052e-08 -1.978620912304899e-07 0.0027957590909978803 1.2649926267602896e-07 2.7697601407285052e-08 1.2649926267602896e-07 0.002708217009668024" pbc="T T F"
C       -0.00008046      -0.00015430       9.99319548        2       0.00025541       0.00009900      -0.00046448
Ti       0.00004976       1.74932074       8.69931781        0      -0.00004145       0.00000071      -0.00231483
Ti       1.51539156       0.87472728      11.31333559        0       0.00015145       0.00020796      -0.00078563
O        0.00035772       1.74720315      12.23008024        3      -0.00020410      -0.00024357      -0.04872431
O        1.51509808       0.87472726       7.77541507        1      -0.00000453      -0.00009337       0.00260585
C       -1.51566362       2.62449667       9.99341101        2       0.00009755      -0.00038976       0.00009690
Ti      -1.51491328       4.37335015       8.69898614        0       0.00029194      -0.00002386      -0.00140337
Ti      -0.00012904       3.49875755      11.31252235        0       0.00025721       0.00017932      -0.00029977
O       -1.51377284       4.37101715      12.23008024        3      -0.00069840      -0.00045007      -0.02196861
O        0.00000732       3.49901586       7.77554212        1      -0.00005950       0.00095615       0.00367132
C       -3.03094426       5.24764497       9.99454179        2      -0.00012272      -0.00012312       0.00117138
Ti      -3.03001419       6.99759745       8.69899221        0       0.00010806       0.00034008      -0.00129078
Ti      -1.51585889       6.12224645      11.31306010        0      -0.00034657      -0.00015021       0.00205848
O       -3.03129615       6.99945970      12.23008024        3      -0.00068979      -0.00028232      -0.02345438
O       -1.51495241       6.12284476       7.77576892        1       0.00035947       0.00028807       0.00550046
C       -4.54500175       7.87138057       9.99348555        2      -0.00030581       0.00012355       0.00013094
Ti      -4.54504382       9.62160019       8.69920541        0       0.00009760       0.00000221      -0.00204513
Ti      -3.03002317       8.74672835      11.31244180        0      -0.00038105      -0.00005444      -0.00042538
O       -4.54671378       9.62314375      12.23008024        3      -0.00042446       0.00004160      -0.04423751
O       -3.02977698       8.74671415       7.77551357        1       0.00081517      -0.00050235       0.00384224
C        3.03080299       0.00015845       9.99344526        2      -0.00059469       0.00047588       0.00004843
Ti       3.02991259       1.74936495       8.69868745        0      -0.00048958      -0.00040801      -0.00353289
Ti       4.54552556       0.87551028      11.31266061        0       0.00010637       0.00053856       0.00063074
O        3.02675377       1.74775479      12.23008024        3       0.00029407       0.00026439      -0.01711130
O        4.54517994       0.87465166       7.77546631        1       0.00031969      -0.00049671       0.00354655
C        1.51556825       2.62457668       9.99339831        2       0.00010269      -0.00044309      -0.00001974
Ti       1.51496229       4.37333958       8.69917378        0      -0.00039767       0.00004470      -0.00162593
Ti       3.03086839       3.49894034      11.31242481        0       0.00059271       0.00008224       0.00128666
O        1.51407316       4.37068998      12.23008024        3       0.00045241      -0.00032413      -0.02176891
O        3.03007901       3.49894052       7.77546073        1      -0.00020580       0.00057075       0.00338021
C       -0.00012038       5.24840772       9.99455515        2       0.00014647      -0.00051695       0.00175444
Ti       0.00003722       6.99747683       8.69963027        0      -0.00003452       0.00020793      -0.00031345
Ti       1.51583362       6.12229680      11.31330225        0       0.00044935      -0.00035099       0.00241204
O        0.00018099       6.99762343      12.23008024        3      -0.00011669       0.00020982      -0.04495290
O        1.51498497       6.12285695       7.77585653        1      -0.00030760       0.00041475       0.00543762
C       -1.51493975       7.87194755       9.99467417        2      -0.00027666       0.00018907       0.00167207
Ti      -1.51510010       9.62153665       8.69918687        0      -0.00004129      -0.00020685      -0.00095572
Ti       0.00001775       8.74783679      11.31338654        0      -0.00012539       0.00049952       0.00179453
O       -1.51764037       9.62241477      12.23008024        3      -0.00007647       0.00078825      -0.02396490
O        0.00002742       8.74678714       7.77584606        1       0.00011774      -0.00038706       0.00556995
C        6.06011400       0.00109254       9.99444959        2      -0.00016045       0.00039683       0.00115712
Ti       6.05995553       1.74943902       8.69823645        0       0.00008043      -0.00027209      -0.00338546
Ti       7.57453034       0.87566170      11.31207256        0      -0.00039359       0.00069840       0.00145162
O        6.05952323       1.74895743      12.23008024        3       0.00017385       0.00053704      -0.02463690
O        7.57486323       0.87469330       7.77538397        1      -0.00029195      -0.00048848       0.00393399
C        4.54545377       2.62438895       9.99392660        2      -0.00025176       0.00012196       0.00023386
Ti       4.54505989       4.37337822       8.69828431        0      -0.00016311      -0.00006836      -0.00386028
Ti       6.05998563       3.49873912      11.30643681        0      -0.00020139       0.00021665      -0.00091766
O        4.54437739       4.37303899      12.23008024        3       0.00048414      -0.00044304      -0.02633277
O        6.06005247       3.49879735       7.77462343        1      -0.00003708       0.00009764       0.00232091
C        3.03102475       5.24774232       9.99445701        2      -0.00007000      -0.00023399       0.00144858
Ti       3.03004625       6.99756910       8.69919734        0      -0.00008587       0.00039813      -0.00138309
Ti       4.54543506       6.12201459      11.31171041        0       0.00037524      -0.00092986       0.00116619
O        3.03149954       6.99918399      12.23008024        3       0.00086466      -0.00032303      -0.02632299
O        4.54494854       6.12268678       7.77541786        1      -0.00048844      -0.00000621       0.00376572
C        1.51494816       7.87210898       9.99481915        2       0.00044399       0.00009442       0.00194259
Ti       1.51510229       9.62153608       8.69919266        0       0.00013213      -0.00011548      -0.00071357
Ti       3.03015496       8.74696436      11.31257413        0       0.00013369      -0.00030040      -0.00026904
O        1.51732619       9.62235496      12.23008024        3       0.00026204       0.00082874      -0.02737619
O        3.02980533       8.74672867       7.77557371        1      -0.00082513      -0.00045893       0.00414939
C        9.08923294       0.00031547       9.99355529        2       0.00056186       0.00040700       0.00022334
Ti       9.09008580       1.74935253       8.69844619        0       0.00054120      -0.00036679      -0.00290555
Ti      10.60440449       0.87485218      11.31352260        0      -0.00003015       0.00012386      -0.00094878
O        9.09326325       1.74787758      12.23008024        3      -0.00020335       0.00052433      -0.01407060
O       10.60486781       0.87472476       7.77548673        1      -0.00005439      -0.00005853       0.00272637
C        7.57461376       2.62453129       9.99432171        2      -0.00018170       0.00004598       0.00003042
Ti       7.57489823       4.37339788       8.69818557        0       0.00021702      -0.00011887      -0.00359019
Ti       9.08921571       3.49894534      11.31171255        0      -0.00063324       0.00052419       0.00106291
O        7.57505250       4.37322229      12.23008024        3      -0.00018682      -0.00017230      -0.02869783
O        9.08988763       3.49891162       7.77535958        1       0.00030409       0.00054091       0.00354794
C        6.06015398       5.24752642       9.99453885        2      -0.00022964      -0.00010000       0.00030606
Ti       6.05999107       6.99754774       8.69854847        0       0.00008156       0.00075119      -0.00341341
Ti       7.57480133       6.12207052      11.31158108        0      -0.00027037      -0.00072667       0.00022970
O        6.06011955       7.00084927      12.23008024        3       0.00024736      -0.00034619      -0.01396428
O        7.57506529       6.12265461       7.77539800        1       0.00050620       0.00001761       0.00355921
C        4.54501065       7.87138185       9.99358722        2       0.00047802       0.00004250       0.00026253
Ti       4.54507707       9.62156457       8.69921129        0      -0.00013650       0.00009707      -0.00199211
Ti       6.05997265       8.74611287      11.31347355        0       0.00002203      -0.00051529      -0.00101597
O        4.54723508       9.62309684      12.23008024        3       0.00020649       0.00002666      -0.03877963
O        6.05997812       8.74667978       7.77549707        1      -0.00000689      -0.00008975       0.00277817
C        0.04489839       0.06758146      16.01469562       10       0.00439992       0.00071484      -0.03331756
C        1.25656644       0.76710187      16.01469562       10       0.00258160       0.00235322      -0.01912694
C       -1.16637733       2.16626398      16.01469562       10       0.00265777      -0.00089804      -0.01264695
C        0.04509332       2.86536177      16.01469562       10      -0.00181427       0.00129142       0.00560959
C       -2.37878932       4.26565477      16.01469562       10       0.00276708      -0.00233449       0.01242116
C       -1.16704325       4.96516951      16.01469562       10       0.00070744       0.00122919       0.00599038
C       -3.59125708       6.36569210      16.01469562       10       0.00446282      -0.00140933       0.01095565
C       -2.37942362       7.06525205      16.01469562       10       0.00114629      -0.00120140       0.00602988
C       -4.80303818       8.46539184      16.01469562       10       0.00088297      -0.00231962      -0.00742336
C       -3.59191166       9.16489037      16.01469562       10       0.00038872      -0.00240048       0.00638799
C        2.46830059       0.06728779      16.01469562       10       0.00288198       0.00320752      -0.01279033
C        3.68037371       0.76739613      16.01469562       10       0.00229711       0.00050353       0.01264335
C        1.25653864       2.16624493      16.01469562       10      -0.00088893       0.00184519      -0.01640572
C        2.46890582       2.86611325      16.01469562       10      -0.00038954      -0.00052258       0.01242950
C        0.04505519       4.26613294      16.01469562       10      -0.00011273       0.00108292       0.02534208
C        1.25697153       4.96519457      16.01469562       10       0.00021900      -0.00016311       0.00375027
C       -1.16721845       6.36508558      16.01469562       10       0.00074844       0.00253747       0.02461962
C        0.04484776       7.06491133      16.01469562       10       0.00006682      -0.00080337       0.00493147
C       -2.37875564       8.46453246      16.01469562       10       0.00024086      -0.00055619       0.02770886
C       -1.16739338       9.16461250      16.01469562       10      -0.00007544      -0.00339051       0.00253910
C        4.89257947       0.06746254      16.01469562       10       0.00086638       0.00266285       0.01656125
C        6.10491555       0.76697406      16.01469562       10       0.00091668       0.00089651       0.01517150
C        3.68028081       2.16637912      16.01469562       10      -0.00119725      -0.00087829       0.00320918
C        4.89298672       2.86655374      16.01469562       10       0.00011745      -0.00199911       0.02287430
C        2.46873252       4.26573471      16.01469562       10       0.00014319      -0.00045542       0.01479008
C        3.68071379       4.96596775      16.01469562       10       0.00036760      -0.00003933       0.01880547
C        1.25696389       6.36520327      16.01469562       10       0.00020078       0.00163540       0.02347846
C        2.46921998       7.06520270      16.01469562       10       0.00123483       0.00046353       0.00428189
C        0.04503625       8.46453077      16.01469562       10      -0.00092155      -0.00082491       0.02321346
C        1.25739125       9.16449885      16.01469562       10      -0.00103540      -0.00263341       0.00298946
C        7.31726218       0.06740405      16.01469562       10      -0.00004533       0.00338275       0.01547240
C        8.52939479       0.76730006      16.01469562       10      -0.00015469       0.00035807       0.01530857
C        6.10490142       2.16646288      16.01469562       10       0.00044422       0.00075189       0.00721769
C        7.31697057       2.86649387      16.01469562       10      -0.00025888      -0.00245552       0.02310926
C        4.89265028       4.26612053      16.01469562       10       0.00032359      -0.00018959       0.00824002
C        6.10492087       4.96586819      16.01469562       10       0.00015181      -0.00081782       0.02357307
C        3.68104451       6.36565428      16.01469562       10       0.00038690       0.00005095       0.01206800
C        4.89316281       7.06542725      16.01469562       10       0.00046579      -0.00180338       0.01742574
C        2.46895491       8.46449156      16.01469562       10      -0.00270474      -0.00087288       0.02971537
C        3.68217285       9.16494293      16.01469562       10      -0.00333513      -0.00350265       0.00492122
C        9.74156540       0.06728716      16.01469562       10      -0.00050836       0.00205777      -0.00541737
C       10.95334839       0.76719722      16.01469562       10      -0.00103093       0.00227909      -0.01611411
C        8.52968933       2.16631449      16.01469562       10      -0.00077441       0.00110436       0.00628676
C        9.74115940       2.86609943      16.01469562       10      -0.00445789       0.00179330       0.01574711
C        7.31722806       4.26614926      16.01469562       10      -0.00068429      -0.00095137       0.00961515
C        8.52928316       4.96586636      16.01469562       10      -0.00293184       0.00276994       0.02236833
C        6.10490454       6.36610529      16.01469562       10       0.00149026      -0.00086768       0.00749562
C        7.31678571       7.06524986      16.01469562       10      -0.00275451       0.00106258       0.01786832
C        4.89328922       8.46534530      16.01469562       10      -0.00301833      -0.00239725      -0.00364255
C        6.10528735       9.16464577      16.01469562       10      -0.00474868      -0.00078103      -0.01295296
