131
Lattice="12.12 0.0 0.0 -6.06 10.496227893867395 0.0 0.0 0.0 40.0" Properties=species:S:1:pos:R:3:tags:I:1:forces:R:3 stress="0.0028777777428396125 -4.3966988199632024e-07 -2.4933362458624854e-07 -4.3966988199632024e-07 0.002877850638733806 -7.443962181170575e-07 -2.4933362458624854e-07 -7.443962181170575e-07 0.0018185806628337228" energy=-1203.7386574861953 pbc="T T F"
C        0.00001070      -0.00010213      10.00188961        2       0.00006357      -0.00014952      -0.00062945
Ti       0.00022325       1.74925551       8.71098676        0       0.00007414      -0.00006764       0.00001328
Ti       1.51564569       0.87443313      11.29346318        0       0.00004723      -0.00028665       0.00008574
O       -0.00041536       1.74964489      12.23008024        3      -0.00007921      -0.00005487       0.02791715
O        1.51530687       0.87390937       7.77258721        1      -0.00015516       0.00033355      -0.00043610
C       -1.51499821       2.62399074      10.00124673        2      -0.00002528       0.00000203      -0.00018277
Ti      -1.51486515       4.37374708       8.71165366        0       0.00008155      -0.00005476      -0.00015041
Ti       0.00021653       3.49876706      11.29180971        0      -0.00013647       0.00003243      -0.00006266
O       -1.51493294       4.37163175      12.23008024        3       0.00006402      -0.00003708       0.04166215
O       -0.00027944       3.49865434       7.77143274        1       0.00009871      -0.00006545       0.00014845
C       -3.03020284       5.24777987      10.00204545        2       0.00005481       0.00018921      -0.00058490
Ti      -3.03011698       6.99753560       8.71374427        0      -0.00003022      -0.00013729      -0.00135716
Ti      -1.51577968       6.12393701      11.29746125        0      -0.00027716       0.00053449       0.00019091
O       -3.03090167       6.99466673      12.23008024        3       0.00023177       0.00008870       0.02601182
O       -1.51532214       6.12351020       7.77362014        1       0.00014606      -0.00057474      -0.00072853
C       -4.54528051       7.87183874      10.00370724        2       0.00020043       0.00008133      -0.00119927
Ti      -4.54475984       9.62136354       8.71359610        0      -0.00004097      -0.00009840      -0.00151167
Ti      -3.02935629       8.74608137      11.30575771        0       0.00014604       0.00005405       0.00003653
O       -4.54714206       9.62240555      12.23008024        3      -0.00005062       0.00005487       0.04773892
O       -3.02970639       8.74673259       7.77530558        1      -0.00021478      -0.00011890      -0.00194552
C        3.03004959       0.00010663      10.00411720        2       0.00002639      -0.00023345      -0.00139995
Ti       3.03000019       1.74940835       8.71125108        0       0.00001864      -0.00041427       0.00026125
Ti       4.54470651       0.87475258      11.29316954        0      -0.00015579      -0.00050948       0.00024905
O        3.02990136       1.75113270      12.23008024        3      -0.00004709      -0.00014922       0.04300918
O        4.54479202       0.87366016       7.77281080        1       0.00010526       0.00056209      -0.00048292
C        1.51498328       2.62421180      10.00115808        2       0.00010203      -0.00008116      -0.00010804
Ti       1.51496344       4.37341248       8.71048919        0      -0.00003012       0.00001276       0.00002830
Ti       3.02995928       3.49889850      11.29172766        0       0.00002947      -0.00010303      -0.00001294
O        1.51518709       4.37320551      12.23008024        3      -0.00006804      -0.00009418       0.04453089
O        3.02983533       3.49819755       7.77110314        1       0.00005573       0.00026113       0.00023031
C        0.00023391       5.24773824      10.00174134        2       0.00004416       0.00011462      -0.00033164
Ti       0.00014344       6.99733427       8.71273037        0      -0.00017419       0.00000180      -0.00036809
Ti       1.51499252       6.12265313      11.29177066        0      -0.00017886       0.00006447       0.00027480
O        0.00173332       6.99613888      12.23008024        3       0.00010527      -0.00000234       0.02913697
O        1.51429582       6.12313721       7.77164592        1       0.00040451      -0.00036256       0.00010533
C       -1.51508666       7.87206980      10.00543426        2      -0.00006666       0.00006028      -0.00167435
Ti      -1.51513511       9.62151835       8.71420727        0       0.00002091      -0.00011874      -0.00177740
Ti      -0.00126944       8.74668677      11.29769120        0      -0.00055422       0.00007181       0.00019549
O       -1.51328552       9.62306006      12.23008024        3       0.00020002       0.00000016       0.02439385
O       -0.00087382       8.74676465       7.77379206        1       0.00051343      -0.00012342      -0.00090594
C        6.06010039       0.00005103      10.00247935        2      -0.00014750      -0.00019929      -0.00085486
Ti       6.05986871       1.74923539       8.71092691        0      -0.00013964      -0.00015335       0.00012741
Ti       7.57493957       0.87460216      11.29209225        0      -0.00009374      -0.00014776      -0.00004100
O        6.06079715       1.75008419      12.23008024        3      -0.00005984      -0.00009655       0.04253546
O        7.57481762       0.87431726       7.77163904        1       0.00005134       0.00006141       0.00001303
C        4.54510507       2.62452720      10.00099481        2      -0.00010935      -0.00007854      -0.00010792
Ti       4.54501636       4.37336929       8.71042249        0      -0.00019123      -0.00013709      -0.00086590
Ti       6.05986668       3.49861161      11.29183917        0      -0.00007300      -0.00003483      -0.00017411
O        4.54491614       4.37345291      12.23008024        3      -0.00001638      -0.00012144       0.04288640
O        6.06021596       3.49842156       7.77099396        1      -0.00014413       0.00008864       0.00030202
C        3.03010647       5.24798068      10.00058760        2       0.00002180      -0.00011165       0.00015532
Ti       3.02993356       6.99746399       8.71051025        0      -0.00015877      -0.00017303      -0.00013266
Ti       4.54464251       6.12265626      11.29182100        0       0.00012769      -0.00012702      -0.00004560
O        3.03024503       6.99733996      12.23008024        3       0.00005471      -0.00008266       0.04560773
O        4.54523347       6.12304352       7.77099011        1      -0.00019516      -0.00036208       0.00026947
C        1.51539397       7.87198698      10.00178975        2      -0.00008161      -0.00020122      -0.00037944
Ti       1.51473055       9.62118549       8.71163974        0      -0.00003406      -0.00021970      -0.00006543
Ti       3.03000503       8.74654998      11.29176848        0      -0.00008330      -0.00011914      -0.00005887
O        1.51678175       9.62220917      12.23008024        3       0.00008658      -0.00011319       0.03991771
O        3.02980584       8.74710472       7.77143854        1       0.00008921      -0.00028504       0.00011660
C        9.09002300      -0.00005830      10.00121807        2      -0.00008526      -0.00018378      -0.00017934
Ti       9.09003120       1.74926925       8.71068142        0      -0.00004764      -0.00008538      -0.00043000
Ti      10.60524625       0.87447911      11.29232918        0      -0.00012047      -0.00006887      -0.00005719
O        9.09006299       1.74927361      12.23008024        3      -0.00016565       0.00002223       0.03326474
O       10.60516835       0.87457322       7.77139509        1      -0.00009994      -0.00007656      -0.00004671
C        7.57501002       2.62393525      10.00100814        2      -0.00017402      -0.00002067      -0.00003976
Ti       7.57503384       4.37340094       8.71040556        0      -0.00010683       0.00000048       0.00036355
Ti       9.08978470       3.49863953      11.29211880        0       0.00003133       0.00010936      -0.00005371
O        7.57467104       4.37233659      12.23008024        3      -0.00000278       0.00008458       0.03716187
O        9.09021468       3.49888421       7.77145780        1      -0.00017268      -0.00015063       0.00010999
C        6.05955001       5.24764352      10.00070463        2      -0.00008197      -0.00000090       0.00009057
Ti       6.05989408       6.99749940       8.71084433        0       0.00020631      -0.00004384       0.00034408
Ti       7.57404817       6.12212222      11.29122171        0       0.00035555       0.00029821       0.00030310
O        6.05820224       6.99640535      12.23008024        3       0.00013130       0.00009911       0.03912142
O        7.57568563       6.12336012       7.77228932        1      -0.00052156      -0.00057335      -0.00006610
C        4.54476754       7.87199581      10.00102360        2       0.00005011      -0.00024892      -0.00006903
Ti       4.54514500       9.62139458       8.71095349        0      -0.00001292      -0.00025644      -0.00006051
Ti       6.06026878       8.74610780      11.29332416        0       0.00035481       0.00004379       0.00004046
O        4.54450413       9.62158751      12.23008024        3      -0.00001842      -0.00014755       0.03205959
O        6.06077851       8.74703071       7.77242218        1      -0.00050188      -0.00037184      -0.00037699
C        0.04111629       0.07002237      18.06944619       10       0.00519082       0.00058615       0.02847815
C        1.25164614       0.76954378      18.05415414       10       0.00040877      -0.00167062       0.04913530
C       -1.16867048       2.16811313      18.07476689       10      -0.00041488       0.00077020       0.00389281
C        0.04316208       2.86773838      18.05705646       10      -0.00037412       0.00108229       0.01487917
C       -2.38050975       4.26509871      18.06944619       10      -0.00327114       0.00058869       0.02157266
C       -1.16951088       4.96365535      18.05415414       10      -0.00095844       0.00089079       0.03749339
C       -3.58756358       6.36780844      18.00633544       10      -0.00261587       0.00056387      -0.01417599
C       -2.38062918       7.04903967      17.96451322       10       0.00030856      -0.00029556      -0.43165464
C       -4.80134332       8.46975428      18.00633544       10       0.00322572      -0.00057410      -0.00834610
C       -3.60789670       9.17441836      17.96451322       10       0.00011568      -0.00184471      -0.43698272
C        2.46550455       0.06405619      18.00633544       10       0.00266435      -0.00200215      -0.00404691
C        3.67914928       0.76693274      17.97425676       10       0.00325735       0.00180317       0.17762415
C        1.25466907       2.16749535      18.04311117       10       0.00122745      -0.00100078      -0.00247915
C        2.46688742       2.86659103      18.02119676       10       0.00026534       0.00104889      -0.02402448
C        0.04260355       4.26711694      18.04311117       10       0.00053844      -0.00099508      -0.00190406
C        1.25431710       4.96706794      18.02119676       10      -0.00194971       0.00072663      -0.03200069
C       -1.17360634       6.36770699      18.00633544       10       0.00063486       0.00118965      -0.00554269
C        0.04202840       7.06711099      17.97425676       10      -0.00049518      -0.00087818       0.18138904
C       -2.38053316       8.46614249      17.51170756       10       0.00138552      -0.00203311       0.25148647
C       -1.15337587       9.17442124      17.96451322       10       0.00045832       0.00139414      -0.42045976
C        4.89285401       0.06405676      18.00633544       10      -0.00026948      -0.00257800      -0.01213731
C        6.10684552       0.76937290      18.05415414       10       0.00061350       0.00130497       0.04150527
C        3.67936019       2.16405853      18.00659047       10      -0.00140160       0.00201542      -0.07451308
C        4.89195642       2.86652510      18.02119676       10      -0.00030127       0.00059886      -0.02087262
C        2.46671155       4.26673593      18.01851515       10      -0.00161933       0.00044621       0.00538306
C        3.67957275       4.96686252      18.01351438       10      -0.00073460       0.00145600      -0.02994833
C        1.25205451       6.36841335      18.00659047       10       0.00055997      -0.00001561      -0.06702265
C        2.46676998       7.06710948      18.02119676       10       0.00075352       0.00139217      -0.03199085
C        0.04003566       8.46958727      18.00633544       10       0.00006376      -0.00142925      -0.00275330
C        1.25797145       9.16796474      18.05415414       10       0.00030560       0.00359568       0.03649304
C        7.31734870       0.06981650      18.06944619       10      -0.00088181      -0.00103858       0.02319079
C        8.52852934       0.76914926      18.07638471       10       0.00020404       0.00122235       0.00489551
C        6.10409917       2.16730158      18.04311117       10      -0.00060179       0.00276982      -0.01410003
C        7.31565119       2.86766036      18.05705646       10      -0.00103317      -0.00053980       0.01680674
C        4.89233779       4.26668339      18.01851515       10      -0.00080694       0.00133998       0.00414342
C        6.10475540       4.96710485      18.02119676       10      -0.00169206       0.00127052      -0.02115495
C        3.67948646       6.36731933      18.01851515       10      -0.00142994      -0.00032809       0.00447439
C        4.89217428       7.06719251      18.02119676       10      -0.00046711       0.00165406      -0.02604755
C        2.46723026       8.46647413      18.04311117       10      -0.00177096      -0.00113741      -0.00213929
C        3.67937182       9.16561092      18.05705646       10       0.00088879       0.00247364       0.01212533
C        9.73926307       0.06869816      18.07476689       10       0.00186603      -0.00011622       0.00415866
C       10.94997276       0.76931805      18.07638471       10      -0.00033524      -0.00143872       0.00687966
C        8.52743448       2.16796692      18.07476689       10      -0.00179978       0.00184836      -0.00465859
C        9.73933221       2.86647754      18.07638471       10       0.00273251      -0.00097387       0.00652294
C        7.31640415       4.26706399      18.04311117       10      -0.00191461       0.00021227      -0.01418226
C        8.52841431       4.96371906      18.05415414       10       0.00236930      -0.00048701       0.04355893
C        6.10684064       6.36850557      18.00659047       10      -0.00139395      -0.00224139      -0.07434487
C        7.31672007       7.06724553      17.97425676       10       0.00033172      -0.00165021       0.17915347
C        4.89156801       8.46657350      18.04311117       10       0.00161440      -0.00052069      -0.00456462
C        6.10073738       9.16820840      18.05415414       10      -0.00115408      -0.00202162       0.04878459
O       -2.37733018       8.46756518      16.16118647       11      -0.00076759      -0.00093220      -0.00303556
