130
Lattice="12.12 0.0 0.0 -6.06 10.496227893867395 0.0 0.0 0.0 40.0" Properties=species:S:1:pos:R:3:tags:I:1:forces:R:3 energy=-1202.1167366477953 stress="0.0029009641083012523 1.2101695425524776e-08 -7.937933582727618e-08 1.2101695425524776e-08 0.0029006289886525875 -5.2981941792672625e-08 -7.937933582727618e-08 -5.2981941792672625e-08 0.002438624132913231" pbc="T T F"
C       -0.00001982      -0.00001075      10.00432039        2      -0.00003872       0.00017681      -0.00365393
Ti      -0.00000914       1.74932659       8.71543694        0      -0.00010198      -0.00031429      -0.00107182
Ti       1.51488565       0.87468393      11.29923704        0      -0.00097587      -0.00114355       0.00454057
O        0.00018813       1.74782195      12.23008024        3       0.00030558       0.00030203       0.09313156
O        1.51521813       0.87479483       7.77713952        1      -0.00007986      -0.00007868       0.00139815
C       -1.51488267       2.62398832      10.00499466        2      -0.00000853       0.00049006      -0.00281569
Ti      -1.51497153       4.37340278       8.71605568        0      -0.00012924      -0.00010379      -0.00092452
Ti       0.00009982       3.49805992      11.29968511        0      -0.00074576      -0.00146363       0.00372455
O       -1.51440977       4.37320338      12.23008024        3       0.00042979       0.00036800       0.07608846
O       -0.00003805       3.49898679       7.77739604        1       0.00004312      -0.00002844       0.00097443
C       -3.02996341       5.24815625      10.00553692        2       0.00000664      -0.00020742      -0.00282504
Ti      -3.03000377       6.99752754       8.71616979        0      -0.00012449       0.00016801      -0.00124180
Ti      -1.51521075       6.12260197      11.29982364        0      -0.00096502       0.00001261       0.00403872
O       -3.02981186       6.99807081      12.23008024        3       0.00046079      -0.00040465       0.07459916
O       -1.51503606       6.12279770       7.77769577        1       0.00000462       0.00002128       0.00088649
C       -4.54498924       7.87229800      10.00509705        2       0.00016462      -0.00040332      -0.00325454
Ti      -4.54504343       9.62156272       8.71549223        0      -0.00016943      -0.00004291      -0.00133901
Ti      -3.03057664       8.74732628      11.29977437        0      -0.00119972       0.00034975       0.00451269
O       -4.54605385       9.62243236      12.23008024        3      -0.00002978       0.00053451       0.09258901
O       -3.02982854       8.74669360       7.77743309        1      -0.00005835       0.00002876       0.00126098
C        3.02998016      -0.00005312      10.00487662        2       0.00050660       0.00022925      -0.00299426
Ti       3.03002402       1.74939140       8.71568819        0      -0.00030202      -0.00037221      -0.00067780
Ti       4.54464983       0.87480531      11.29972483        0      -0.00031303      -0.00060497       0.00367466
O        3.02978681       1.74929773      12.23008024        3       0.00051599       0.00093786       0.08405204
O        4.54525132       0.87478108       7.77769625        1      -0.00014932      -0.00000672       0.00081410
C        1.51492531       2.62403679      10.00485627        2       0.00034081       0.00071227      -0.00256346
Ti       1.51498719       4.37340810       8.71596265        0      -0.00019830      -0.00019167      -0.00050832
Ti       3.02986855       3.49843745      11.29977134        0      -0.00021357      -0.00093874       0.00309923
O        1.51455581       4.37326248      12.23008024        3       0.00022792       0.00027941       0.07560577
O        3.03022825       3.49893020       7.77772529        1      -0.00007052      -0.00008216       0.00062063
C       -0.00002650       5.24803273      10.00520580        2       0.00036253       0.00004390      -0.00233354
Ti      -0.00000831       6.99747026       8.71635820        0      -0.00019027       0.00007841      -0.00085873
Ti       1.51503666       6.12256717      11.29991835        0       0.00011205       0.00043364       0.00297500
O       -0.00009917       6.99748814      12.23008024        3       0.00041934      -0.00035277       0.06361341
O        1.51497694       6.12283697       7.77766534        1       0.00002188      -0.00006881       0.00068904
C       -1.51506815       7.87220163      10.00523920        2       0.00037017      -0.00010138      -0.00282930
Ti      -1.51502419       9.62153977       8.71603750        0      -0.00027091      -0.00009549      -0.00100977
Ti      -0.00012459       8.74694602      11.29982986        0      -0.00010062       0.00080644       0.00386823
O       -1.51533107       9.62134364      12.23008024        3       0.00046868      -0.00002514       0.07368097
O        0.00000262       8.74679894       7.77764739        1      -0.00004741       0.00001899       0.00082538
C        6.06000053      -0.00005903      10.00535861        2      -0.00002874       0.00014276      -0.00251748
Ti       6.06000977       1.74939856       8.71660404        0       0.00009028      -0.00018536      -0.00073693
Ti       7.57524285       0.87471370      11.29986562        0       0.00094682       0.00009917       0.00376203
O        6.05993010       1.74911220      12.23008024        3      -0.00038483       0.00049000       0.08166968
O        7.57481539       0.87477383       7.77777679        1       0.00003782      -0.00000029       0.00077507
C        4.54496734       2.62402508      10.00551190        2      -0.00005877       0.00027661      -0.00218753
Ti       4.54502774       4.37343092       8.71667633        0       0.00009549       0.00005537      -0.00059914
Ti       6.05997244       3.49868547      11.30114054        0       0.00075297      -0.00026030       0.00305286
O        4.54484810       4.37331985      12.23008024        3      -0.00032132      -0.00021693       0.08166712
O        6.06004150       3.49879913       7.77825907        1      -0.00003086       0.00000464       0.00035092
C        3.02995885       5.24815667      10.00540784        2       0.00000848      -0.00016414      -0.00187772
Ti       3.02997931       6.99750927       8.71616821        0       0.00011992       0.00030674      -0.00073081
Ti       4.54507725       6.12295423      11.30000150        0       0.00096877       0.00115616       0.00340268
O        3.02965657       6.99792566      12.23008024        3      -0.00053760      -0.00063237       0.07608179
O        4.54500473       6.12260869       7.77785505        1      -0.00000050       0.00002707       0.00071379
C        1.51495249       7.87216979      10.00521785        2      -0.00011868      -0.00037862      -0.00248266
Ti       1.51500710       9.62151212       8.71613184        0       0.00014793       0.00008852      -0.00091462
Ti       3.03050519       8.74717717      11.29983905        0       0.00127856       0.00134317       0.00396211
O        1.51517759       9.62112125      12.23008024        3      -0.00025665      -0.00037567       0.07483145
O        3.02980521       8.74672515       7.77746771        1       0.00001053      -0.00004343       0.00102313
C        9.08998348      -0.00007419      10.00499909        2      -0.00046907      -0.00001088      -0.00305339
Ti       9.08997140       1.74937273       8.71587220        0       0.00028676      -0.00018076      -0.00091537
Ti      10.60523948       0.87460482      11.29928586        0       0.00030697      -0.00048965       0.00477447
O        9.09035598       1.74922847      12.23008024        3      -0.00053482       0.00034352       0.08313124
O       10.60472170       0.87478933       7.77720440        1       0.00013637      -0.00007266       0.00141548
C        7.57507098       2.62400290      10.00566780        2      -0.00036809       0.00014002      -0.00257282
Ti       7.57498715       4.37342406       8.71682604        0       0.00018533       0.00012727      -0.00092285
Ti       9.09022354       3.49845782      11.29995895        0       0.00004925      -0.00080947       0.00380363
O        7.57525608       4.37346002      12.23008024        3      -0.00053809      -0.00016571       0.07956248
O        9.08977491       3.49888527       7.77785271        1       0.00005426      -0.00003142       0.00082563
C        6.06000979       5.24819175      10.00577129        2      -0.00037634      -0.00037943      -0.00249063
Ti       6.05998606       6.99746306       8.71598887        0       0.00015033       0.00040995      -0.00101648
Ti       7.57486393       6.12306563      11.30004334        0      -0.00006535       0.00066452       0.00412983
O        6.06000128       6.99803266      12.23008024        3      -0.00035426      -0.00088772       0.08359053
O        7.57499223       6.12256797       7.77790616        1      -0.00004084       0.00010613       0.00091628
C        4.54493423       7.87222159      10.00506460        2      -0.00040755      -0.00066505      -0.00292706
Ti       4.54500802       9.62154505       8.71552657        0       0.00020432       0.00013747      -0.00120059
Ti       6.05998977       8.74711662      11.29926477        0       0.00023029       0.00074472       0.00492784
O        4.54568492       9.62204160      12.23008024        3      -0.00036289      -0.00035519       0.08838536
O        6.05996988       8.74653019       7.77724162        1       0.00002172       0.00010141       0.00155655
C        0.04506652       0.06764194      16.50700332       10      -0.00549412      -0.00376041      -0.02772827
C        1.25707078       0.76736422      16.50700332       10       0.00560744       0.00185721      -0.03703137
C       -1.16716521       2.16705404      16.50700332       10       0.00097549      -0.00768757      -0.03112354
C        0.04497480       2.86650674      16.50700332       10       0.00050221       0.00184140      -0.03550166
C       -2.37887892       4.26616594      16.50700332       10       0.00151070      -0.00397895      -0.02451231
C       -1.16693562       4.96573110      16.50700332       10       0.00085403       0.00168577      -0.02133856
C       -3.59076547       6.36540140      16.50700332       10       0.00095605      -0.00577117      -0.02241471
C       -2.37883099       7.06496900      16.50700332       10      -0.00181867       0.00447968      -0.02202333
C       -4.80288568       8.46448237      16.50700332       10      -0.00408020      -0.00293528      -0.03035222
C       -3.59108610       9.16432199      16.50700332       10       0.00563156      -0.00100184      -0.03455981
C        2.46928123       0.06751043      16.50700332       10      -0.00242388       0.00316740      -0.02995372
C        3.68118230       0.76727852      16.50700332       10      -0.00243600      -0.00394930      -0.02327478
C        1.25707307       2.16702275      16.50700332       10      -0.00080005      -0.00385220      -0.03077793
C        2.46900277       2.86659690      16.50700332       10      -0.00086659       0.00152810      -0.02391518
C        0.04507450       4.26617847      16.50700332       10      -0.00132171      -0.00157341      -0.02575060
C        1.25707122       4.96572141      16.50700332       10      -0.00002937       0.00128369      -0.02173775
C       -1.16675925       6.36528003      16.50700332       10      -0.00633541      -0.00304523      -0.02209848
C        0.04517873       7.06492868      16.50700332       10      -0.00202852       0.00108262      -0.03165668
C       -2.37883111       8.46443205      16.50700332       10      -0.00225070       0.00122008      -0.02314368
C       -1.16699018       9.16432464      16.50700332       10      -0.00009867      -0.00824726      -0.02272127
C        4.89314834       0.06727857      16.50700332       10      -0.00041861       0.00829229      -0.02373521
C        6.10506003       0.76723323      16.50700332       10      -0.00325338      -0.00411224      -0.02977158
C        3.68091223       2.16676421      16.50700332       10       0.00234870      -0.00038282      -0.03180304
C        4.89289003       2.86662124      16.50700332       10       0.00014533      -0.00190633      -0.01582476
C        2.46890736       4.26613444      16.50700332       10       0.00245722       0.00168844      -0.02545376
C        3.68096923       4.96592706      16.50700332       10      -0.00250218      -0.00163535      -0.02840108
C        1.25715163       6.36526280      16.50700332       10      -0.00006369       0.00185583      -0.01978614
C        2.46914769       7.06505016      16.50700332       10      -0.00228882       0.00044031      -0.02321738
C        0.04500926       8.46437268      16.50700332       10       0.00332520       0.00412767      -0.01739399
C        1.25699221       9.16432485      16.50700332       10       0.00054682      -0.00827956      -0.02354296
C        7.31696035       0.06726846      16.50700332       10       0.00007952       0.00826336      -0.02303471
C        8.52887537       0.76723395      16.50700332       10       0.00233258      -0.00121498      -0.02189955
C        6.10479878       2.16669610      16.50700332       10       0.00216935      -0.00113466      -0.02836005
C        7.31673195       2.86652628      16.50700332       10       0.00642269       0.00310076      -0.01557696
C        4.89288628       4.26616146      16.50700332       10      -0.00001553      -0.00129469      -0.02997175
C        6.10498295       4.96582309      16.50700332       10       0.00134041       0.00165821      -0.01489898
C        3.68093137       6.36541372      16.50700332       10       0.00086527      -0.00157410      -0.02243250
C        4.89295059       7.06504491      16.50700332       10       0.00082119       0.00398129      -0.02066897
C        2.46887751       8.46444011      16.50700332       10       0.00239725       0.00391837      -0.02035769
C        3.68101557       9.16437418      16.50700332       10       0.00250450      -0.00314704      -0.03246534
C        9.74090705       0.06753163      16.50700332       10      -0.00570172       0.00108745      -0.02928715
C       10.95291722       0.76738202      16.50700332       10       0.00410252       0.00287962      -0.03603115
C        8.52883611       2.16677402      16.50700332       10       0.00188567      -0.00442891      -0.03038299
C        9.74085079       2.86656716      16.50700332       10      -0.00088931       0.00583509      -0.02249161
C        7.31706582       4.26612360      16.50700332       10      -0.00070967      -0.00162180      -0.03274788
C        8.52913207       4.96582383      16.50700332       10      -0.00144391       0.00409244      -0.02569746
C        6.10502450       6.36543180      16.50700332       10      -0.00046190      -0.00181045      -0.03007009
C        7.31716636       7.06491833      16.50700332       10      -0.00098056       0.00781929      -0.02120031
C        4.89294933       8.46454045      16.50700332       10      -0.00565810      -0.00195173      -0.02885850
C        6.10496515       9.16423838      16.50700332       10       0.00548323       0.00368947      -0.03454819
