132
Lattice="12.12 0.0 0.0 -6.06 10.496227893867395 0.0 0.0 0.0 40.0" Properties=species:S:1:pos:R:3:tags:I:1:forces:R:3 stress="0.002776851162582277 -3.506453329683004e-06 -7.36878553541347e-07 -3.506453329683004e-06 0.0027671165900308155 -6.426473205641088e-06 -7.36878553541347e-07 -6.426473205641088e-06 0.0025191012481646587" energy=-1209.9231289165848 pbc="T T F"
C        0.00026663      -0.00009060       9.99622191        2       0.00189845      -0.00295413       0.00127054
Ti      -0.00073425       1.75276978       8.69688362        0       0.00241347      -0.00142504       0.00068818
Ti       1.51182458       0.87901678      11.31533665        0       0.00028676      -0.00111953      -0.00090276
O        0.00062953       1.74350725      12.23008024        3       0.00266744      -0.00005733       0.00705683
O        1.51170371       0.87931270       7.77322999        1       0.00011770      -0.00112134       0.00294528
C       -1.51777085       2.62772021      10.01535111        2       0.00084984       0.00007449      -0.00328954
Ti      -1.51619511       4.37978130       8.70586434        0       0.00043284      -0.00121532      -0.00177376
Ti      -0.00955075       3.49917412      11.32427526        0      -0.00179957       0.00107282      -0.00438534
O       -1.51405301       4.38274974      12.23008024        3       0.00074589      -0.00020931      -0.16685425
O       -0.00475561       3.50327194       7.77871268        1       0.00167462      -0.00187548       0.00091695
C       -3.03303549       5.25130817      10.01073130        2      -0.00104827       0.00301223      -0.00211967
Ti      -3.03302612       7.00158594       8.70221860        0       0.00004455      -0.00050076      -0.00158013
Ti      -1.51651455       6.12547558      11.31428244        0       0.00149637      -0.00113551      -0.00257035
O       -3.03155814       7.00332458      12.23008024        3      -0.00041788       0.00034609       0.01809367
O       -1.51862473       6.12452036       7.77766536        1       0.00037983       0.00079481       0.00261532
C       -4.54725742       7.87651135      10.00382693        2      -0.00169061       0.00041323       0.00149569
Ti      -4.54769467       9.62429568       8.69741192        0      -0.00058514      -0.00103185      -0.00274018
Ti      -3.03417385       8.75000211      11.31607211        0       0.00051237       0.00159014      -0.00125948
O       -4.55041410       9.62673893      12.23008024        3       0.00041781      -0.00180270       0.01395970
O       -3.03334719       8.74685122       7.77180213        1      -0.00060699       0.00140875       0.00133209
C        3.02713383       0.00285247      10.00171425        2      -0.00025401      -0.00129542       0.00325596
Ti       3.02687727       1.75412885       8.70210864        0      -0.00051926      -0.00105874      -0.00245441
Ti       4.54359190       0.87773380      11.31855590        0      -0.00043664      -0.00282143      -0.00025247
O        3.02566199       1.75089887      12.23008024        3       0.00123528      -0.00114473       0.00476754
O        4.54268946       0.88010405       7.77325310        1      -0.00087937      -0.00172181       0.00211903
C        1.51373413       2.62679403      10.00172681        2       0.00323227      -0.00229897       0.00107777
Ti       1.51257598       4.37556115       8.70436759        0       0.00114109      -0.00014262      -0.00327206
Ti       3.02538842       3.50194904      11.32164065        0      -0.00027812      -0.00188928      -0.00136348
O        1.51023360       4.37443233      12.23008024        3       0.00296530      -0.00045365       0.01238355
O        3.02804147       3.50397200       7.77732091        1       0.00089084      -0.00292969       0.00144882
C       -0.00256032       5.25201099      10.00589586        2       0.00069003       0.00148541      -0.00173833
Ti      -0.00228043       7.00059328       8.70028591        0      -0.00086344      -0.00030453      -0.00282784
Ti       1.51024702       6.12547203      11.31955587        0       0.00021766      -0.00071387      -0.00137624
O       -0.00252518       7.00143265      12.23008024        3       0.00015474       0.00288850       0.01567486
O        1.51243572       6.12466907       7.77680302        1      -0.00046686       0.00016250       0.00196795
C       -1.51803900       7.87859098      10.00109296        2       0.00026716       0.00163802       0.00109432
Ti      -1.51877144       9.62481235       8.69560010        0      -0.00002815      -0.00211343      -0.00188410
Ti       0.00001298       8.75064556      11.31374773        0      -0.00053119       0.00092524      -0.00123063
O       -1.51811149       9.62404747      12.23008024        3      -0.00010727      -0.00079331      -0.01480368
O       -0.00343566       8.74792407       7.77090469        1      -0.00020116       0.00020797       0.00145390
C        6.05160372      -0.00113016       9.99806335        2      -0.00150156      -0.00198229       0.00176630
Ti       6.05489372       1.75190914       8.70207620        0      -0.00126486      -0.00250357      -0.00052853
Ti       7.57206796       0.87563868      11.30128270        0       0.00428009       0.00069765      -0.00029613
O        6.05747232       1.74683979      12.23008024        3      -0.00009298       0.00027054       0.02745273
O        7.57263520       0.87990910       7.77574954        1      -0.00086388      -0.00157219       0.00469089
C        4.54145333       2.62605168      10.00519956        2      -0.00113000      -0.00140433       0.00230839
Ti       4.54250341       4.37670807       8.70388046        0      -0.00059767      -0.00174503      -0.00196817
Ti       6.05966683       3.49753140      11.32190344        0      -0.00064050      -0.00076487      -0.00309679
O        4.54211096       4.37543646      12.23008024        3      -0.00052576      -0.00245615       0.02020502
O        6.05855004       3.50258750       7.77970572        1      -0.00244742      -0.00398297       0.00317673
C        3.02813583       5.25145349      10.00581635        2      -0.00006077      -0.00101275       0.00183273
Ti       3.02806661       6.99938891       8.69983812        0      -0.00056276      -0.00073465       0.00051041
Ti       4.54190375       6.12535110      11.31952021        0       0.00058399      -0.00098288      -0.00016140
O        3.02651218       7.00264264      12.23008024        3      -0.00071976      -0.00030903      -0.00356706
O        4.54351590       6.12444849       7.77674814        1      -0.00142846      -0.00088736       0.00266275
C        1.51273600       7.87581956      10.00166617        2       0.00064726      -0.00067644       0.00274706
Ti       1.51077547       9.62235931       8.69592405        0      -0.00181036      -0.00041809      -0.00162690
Ti       3.02739787       8.75337122      11.31328734        0       0.00044254       0.00076926      -0.00006110
O        1.51261699       9.62478849      12.23008024        3      -0.00263652      -0.00192258       0.00143636
O        3.02733228       8.74815778       7.77238690        1      -0.00144770      -0.00058457       0.00264926
C        9.08651651      -0.00072458       9.99928203        2      -0.00061004      -0.00164052      -0.00019792
Ti       9.08661729       1.75066733       8.69595865        0       0.00089706       0.00008335      -0.00088629
Ti      10.60789853       0.87552118      11.28897697        0      -0.00149552       0.00196057      -0.00320028
O        9.09148395       1.73701485      12.23008024        3       0.00438071       0.00271835       0.08934188
O       10.60100302       0.88058054       7.77347012        1       0.00203205      -0.00139679       0.00269996
C        7.57321381       2.62626346      10.01180974        2      -0.00244369      -0.00052497      -0.00092959
Ti       7.57020223       4.37802133       8.70529351        0      -0.00034131      -0.00122384      -0.00348058
Ti       9.09535630       3.50220637      11.32822343        0       0.00322118      -0.00143446      -0.00625772
O        7.57091259       4.37610296      12.23008024        3      -0.00063967       0.00090582       0.00205462
O        9.08747129       3.50205759       7.78517844        1      -0.00038300      -0.00115877       0.00083313
C        6.05787873       5.25049176      10.00759634        2      -0.00115873      -0.00006367       0.00118585
Ti       6.05737939       7.00037042       8.70377664        0      -0.00066861      -0.00075288      -0.00317526
Ti       7.57418584       6.12337488      11.32471766        0      -0.00013993       0.00260391      -0.00336603
O        6.05786077       7.00275614      12.23008024        3       0.00142019      -0.00030437       0.01186362
O        7.57289008       6.12365884       7.77924826        1      -0.00011068       0.00311020       0.00228917
C        4.54272722       7.87470342      10.00244915        2       0.00013563      -0.00008864       0.00246394
Ti       4.54325192       9.62345546       8.69584103        0      -0.00048157      -0.00116418      -0.00303169
Ti       6.05348149       8.75163436      11.31967877        0      -0.00048799      -0.00076617      -0.00059965
O        4.54603029       9.62692037      12.23008024        3       0.00178826      -0.00171527       0.01357689
O        6.05769689       8.74737447       7.77305522        1       0.00063577      -0.00094878       0.00170531
C        0.06637908       0.06784198      16.37702354       10       0.00644865       0.00346000      -0.02586820
C        1.27142809       0.77190848      16.38541177       10      -0.00104137      -0.00040752       0.03238355
C       -1.12683923       2.15547072      16.35265287       10       0.00178978      -0.00038097       0.34863107
C        0.06080739       2.86951927      16.36029161       10       0.00089389       0.00222077       0.06125544
C       -2.36506301       4.31061618      16.35264732       10       0.00114318      -0.00045263       0.69074346
C       -1.15403392       4.97933106      16.36028905       10      -0.00157639       0.00099566       0.02153291
C       -3.57895698       6.38418047      16.37702299       10       0.00083132      -0.00030428       0.00512995
C       -2.36738592       7.07654561      16.38541157       10      -0.00136163       0.00273585      -0.00959614
C       -4.79032987       8.47303743      16.37513060       10       0.00614066       0.00065358      -0.01753374
C       -3.57891268       9.17207622      16.38642026       10      -0.00385208      -0.00151490       0.00563680
C        2.48282120       0.07255392      16.38744528       10       0.00189791       0.00382362      -0.00395220
C        3.69165725       0.77281085      16.38642017       10       0.00252137       0.00081467       0.00822373
C        1.27619572       2.16704596      16.37702375       10       0.00127193       0.00272670      -0.02139985
C        2.48195630       2.87170238      16.36796362       10       0.00118451       0.00199163       0.01824819
C        0.06151677       4.27383904      16.33416373       10       0.00109396       0.00247579       0.00401371
C        1.26857632       4.97146532      16.34583368       10       0.00106943       0.00212373      -0.03083116
C       -1.15427962       6.38325312      16.37702299       10       0.00007561       0.00161095       0.03011897
C        0.05766278       7.07420452      16.36796372       10       0.00063872       0.00212536      -0.02594391
C       -2.36770463       8.47544795      16.38744549       10       0.00061002       0.00451343       0.01622775
C       -1.15653627       9.17159156      16.38642026       10       0.00064492       0.00226826      -0.01188110
C        4.90071916       0.07149519      16.38744528       10      -0.00002485       0.00135246       0.02261948
C        6.11281901       0.77258519      16.38541177       10      -0.00180256      -0.00182985       0.01034864
C        3.69112288       2.17101975      16.37513047       10       0.00036543       0.00095872      -0.00286797
C        4.90172995       2.87248666      16.36796362       10      -0.00109261       0.00086930       0.02573613
C        2.48046374       4.27084563      16.35408012       10       0.00080107       0.00236391       0.01212054
C        3.69322182       4.97236439      16.35129226       10      -0.00025511       0.00238753      -0.01160607
C        1.26770597       6.37284711      16.35408002       10       0.00089553       0.00112986       0.05039108
C        2.48136063       7.07171397      16.35129215       10       0.00053309      -0.00086843      -0.02139238
C        0.05547187       8.47132607      16.37513060       10      -0.00125858       0.00214920       0.04206245
C        1.26731604       9.16825598      16.36796347       10      -0.00142825      -0.00173618       0.00020294
C        7.31859103       0.06661047      16.37702354       10      -0.00274045      -0.00098087       0.00674204
C        8.53415128       0.76910086      16.36029142       10      -0.00084964      -0.00261938       0.05985181
C        6.10724286       2.16749615      16.37702375       10      -0.00227477      -0.00145439      -0.00707767
C        7.32400607       2.87038535      16.36029161       10      -0.00171031      -0.00075878       0.05278944
C        4.90386027       4.27132482      16.35408012       10      -0.00135722       0.00111191      -0.00419210
C        6.11743437       4.97260055      16.34583368       10      -0.00081314       0.00008764      -0.00463875
C        3.69211786       6.37279941      16.34821426       10      -0.00033719       0.00065377       0.00374078
C        4.90485807       7.07235437      16.35129215       10      -0.00194810      -0.00138720      -0.00021446
C        2.47952830       8.47162557      16.35407985       10      -0.00155576      -0.00101893       0.02972671
C        3.69317067       9.17102702      16.34583327       10      -0.00058563      -0.00278168      -0.00643545
C        9.75397355       0.06850103      16.33416368       10       0.00456737       0.00236019      -0.06055058
C       10.97157230       0.77008046      16.36029142       10      -0.00484528      -0.00098963       0.06384007
C        8.51004399       2.15434171      16.35265287       10       0.00032977      -0.00085898       0.34634223
C        9.74999796       2.86994835      16.10829361       10       0.00049988       0.00200326      -1.80087677
C        7.32567197       4.27635642      16.33416373       10       0.00136186       0.00112114      -0.02883214
C        8.54131753       4.98030456      16.36028905       10      -0.00144281       0.00182275       0.05159431
C        6.11755624       6.37451391      16.35408002       10      -0.00168805      -0.00014887      -0.00414371
C        7.32797136       7.07524530      16.36796372       10      -0.00296423       0.00152843       0.00433788
C        4.90660986       8.47237955      16.35407985       10       0.00189314       0.00094339      -0.00397422
C        6.11828101       9.16918709      16.36796347       10      -0.00654792      -0.00312744       0.04343948
O        9.77186517       2.98733856      14.58253295       11      -0.00577713       0.00213386      -0.00759731
H        9.53466106       2.15248717      14.12755152       12       0.00383664       0.00621662       0.00341320
