130
Lattice="12.12 0.0 0.0 -6.06 10.496227893867395 0.0 0.0 0.0 40.0" Properties=species:S:1:pos:R:3:tags:I:1:forces:R:3 energy=-1198.6556549673844 stress="0.0026059231238712635 1.8411798916766998e-07 -5.368257185620395e-07 1.8411798916766998e-07 0.0026054047307628283 -9.859516116543673e-07 -5.368257185620395e-07 -9.859516116543673e-07 0.0029686960222728527" pbc="T T F"
C       -0.00000381      -0.00009117      10.00014570        2      -0.00011910      -0.00018098      -0.00496577
Ti       0.00001940       1.74917219       8.70895979        0      -0.00005457       0.00000358      -0.00375391
Ti       1.51484234       0.87439123      11.28038835        0      -0.00035535      -0.00034093       0.00170727
O       -0.00024344       1.74849410      12.23008024        3      -0.00010790       0.00050644      -0.40745785
O        1.51487821       0.87464052       7.76756434        1      -0.00040544      -0.00031047      -0.00151643
C       -1.51524148       2.62404437      10.00011918        2      -0.00020887       0.00002378      -0.00555629
Ti      -1.51491701       4.37333599       8.70814631        0       0.00003877      -0.00004081      -0.00538299
Ti      -0.00014438       3.49949728      11.27767495        0      -0.00025597      -0.00023974       0.00016346
O       -1.51554608       4.37332302      12.23008024        3      -0.00004606       0.00033332      -0.40964569
O        0.00004013       3.49845061       7.76719165        1      -0.00015612      -0.00105120      -0.00268387
C       -3.03003719       5.24803218       9.99910553        2      -0.00009851      -0.00021153      -0.00633701
Ti      -3.02998786       6.99755898       8.70788952        0       0.00009828      -0.00011333      -0.00554952
Ti      -1.51420946       6.12336028      11.27711412        0      -0.00006751       0.00007805       0.00016611
O       -3.03012789       6.99684053      12.23008024        3       0.00029292      -0.00055921      -0.41454705
O       -1.51494661       6.12273491       7.76667762        1      -0.00058267      -0.00039003      -0.00365616
C       -4.54503761       7.87187324       9.99992061        2      -0.00005009      -0.00044997      -0.00584099
Ti      -4.54516864       9.62165530       8.70887002        0      -0.00002552      -0.00018899      -0.00360495
Ti      -3.02921859       8.74609137      11.27710686        0       0.00003539      -0.00013221       0.00071594
O       -4.54572708       9.62134510      12.23008024        3       0.00028436      -0.00054841      -0.40509473
O       -3.03020208       8.74700513       7.76697112        1      -0.00079288       0.00025736      -0.00261308
C        3.03001294       0.00000953      10.00012338        2       0.00008835      -0.00010024      -0.00558125
Ti       3.03003423       1.74937414       8.70881276        0      -0.00008084      -0.00013386      -0.00457631
Ti       4.54507104       0.87329413      11.27891683        0       0.00005673      -0.00038957       0.00044095
O        3.03102857       1.74986652      12.23008024        3       0.00034842       0.00027142      -0.39212828
O        4.54471324       0.87453783       7.76698516        1      -0.00030657       0.00011711      -0.00295730
C        1.51512101       2.62398130      10.00022330        2       0.00008164       0.00010269      -0.00508357
Ti       1.51495744       4.37321793       8.70828918        0      -0.00000972      -0.00005764      -0.00557543
Ti       3.02885139       3.49914733      11.27915442        0       0.00007006      -0.00013875       0.00008758
O        1.51532728       4.37312551      12.23008024        3       0.00007591       0.00055359      -0.41020125
O        3.02967716       3.49856339       7.76709052        1      -0.00000299      -0.00065579      -0.00314326
C       -0.00002916       5.24800812       9.99951733        2      -0.00008392      -0.00004526      -0.00596639
Ti      -0.00003902       6.99740691       8.70718347        0      -0.00007545      -0.00011256      -0.00600506
Ti       1.51428768       6.12344943      11.27627761        0      -0.00033335       0.00025368      -0.00017047
O        0.00021556       6.99788408      12.23008024        3      -0.00004805      -0.00030199      -0.45664351
O        1.51496651       6.12268214       7.76671347        1       0.00015811      -0.00038139      -0.00403599
C       -1.51505696       7.87213227       9.99931203        2       0.00002721      -0.00024765      -0.00636014
Ti      -1.51518166       9.62162466       8.70799412        0      -0.00006338      -0.00019745      -0.00548697
Ti       0.00011703       8.74595249      11.27574294        0      -0.00024322      -0.00012274       0.00001818
O       -1.51494029       9.62168623      12.23008024        3       0.00045826      -0.00036287      -0.41752114
O       -0.00003449       8.74682514       7.76661330        1      -0.00020900       0.00034610      -0.00389754
C        6.05995847      -0.00001117       9.99918650        2      -0.00003076      -0.00013491      -0.00645774
Ti       6.05998948       1.74927258       8.70772449        0      -0.00006421      -0.00017603      -0.00548399
Ti       7.57502841       0.87287130      11.27832171        0      -0.00001405      -0.00033474       0.00080435
O        6.06038027       1.75082749      12.23008024        3      -0.00015966      -0.00011063      -0.40728944
O        7.57517858       0.87449059       7.76683884        1       0.00034521       0.00026622      -0.00311953
C        4.54502547       2.62404376       9.99906001        2       0.00013127       0.00002032      -0.00558211
Ti       4.54489242       4.37342539       8.70765996        0      -0.00003127      -0.00015574      -0.00588612
Ti       6.05997965       3.49864983      11.27913354        0       0.00029806      -0.00015561      -0.00025183
O        4.54676653       4.37317389      12.23008024        3      -0.00026389      -0.00006036      -0.40574325
O        6.05990194       3.49866975       7.76677438        1       0.00015962      -0.00020531      -0.00360783
C        3.02997322       5.24802791       9.99924682        2      -0.00002027      -0.00016360      -0.00593184
Ti       3.03000285       6.99754294       8.70775243        0      -0.00018334      -0.00018217      -0.00614267
Ti       4.54354986       6.12368102      11.27812826        0      -0.00019047      -0.00002063      -0.00015339
O        3.02985775       6.99698661      12.23008024        3      -0.00067144      -0.00067569      -0.42096549
O        4.54487248       6.12299888       7.76684689        1       0.00045940       0.00002884      -0.00349423
C        1.51496062       7.87211979       9.99919346        2      -0.00025873      -0.00027491      -0.00654010
Ti       1.51510680       9.62154501       8.70770038        0      -0.00018017      -0.00022739      -0.00589253
Ti       3.02899431       8.74620131      11.27645132        0      -0.00028168      -0.00011153      -0.00005452
O        1.51456062       9.62144685      12.23008024        3      -0.00050423      -0.00054795      -0.42291159
O        3.03019575       8.74694721       7.76689401        1       0.00070072       0.00045089      -0.00315066
C        9.08994383      -0.00001976       9.99997561        2      -0.00032309      -0.00014393      -0.00609674
Ti       9.08997446       1.74933928       8.70848438        0       0.00000092      -0.00011832      -0.00445774
Ti      10.60490089       0.87446734      11.28073517        0      -0.00015493      -0.00054352       0.00193017
O        9.08887526       1.74987536      12.23008024        3      -0.00051620      -0.00002072      -0.39249667
O       10.60521126       0.87462097       7.76750437        1       0.00023789      -0.00020971      -0.00154103
C        7.57501569       2.62402240       9.99869629        2      -0.00027138      -0.00001717      -0.00604501
Ti       7.57505314       4.37340036       8.70725495        0       0.00004636      -0.00006442      -0.00583932
Ti       9.09111634       3.49899511      11.27840989        0      -0.00038368      -0.00029619       0.00057638
O        7.57351348       4.37291569      12.23008024        3      -0.00018503      -0.00020209      -0.40834985
O        9.09033899       3.49859351       7.76686904        1      -0.00007890      -0.00059705      -0.00300234
C        6.06000631       5.24807190       9.99846808        2      -0.00010712      -0.00034364      -0.00601749
Ti       6.05997639       6.99745043       8.70829043        0      -0.00002586      -0.00002562      -0.00491458
Ti       7.57594690       6.12334388      11.27798389        0      -0.00020723      -0.00033532       0.00012014
O        6.05995976       6.99604293      12.23008024        3      -0.00030763      -0.00075424      -0.39346242
O        7.57507136       6.12306958       7.76677061        1      -0.00032251      -0.00003643      -0.00316241
C        4.54499074       7.87198988       9.99987703        2      -0.00027284      -0.00048286      -0.00591735
Ti       4.54524698       9.62166341       8.70891006        0      -0.00007859      -0.00017502      -0.00383114
Ti       6.05996469       8.74646801      11.28092845        0      -0.00044578      -0.00009441       0.00239728
O        4.54547446       9.62143820      12.23008024        3      -0.00077697      -0.00076482      -0.40257410
O        6.06003214       8.74705367       7.76742599        1      -0.00000302       0.00031689      -0.00158604
C        0.04526102       0.06770285      15.03008024       10      -0.00270412      -0.00014319       0.09411131
C        1.25736420       0.76749814      15.03008024       10      -0.00483104      -0.00139449       0.05866371
C       -1.16746661       2.16734436      15.03008024       10       0.00278941       0.00162773       0.13663474
C        0.04476223       2.86709104      15.03008024       10       0.00245897      -0.00182594       0.10853054
C       -2.37910814       4.26675596      15.03008024       10       0.00007352       0.00113480       0.15919201
C       -1.16705627       4.96617063      15.03008024       10       0.00041352      -0.00038026       0.20233861
C       -3.59038637       6.36513009      15.03008024       10      -0.00273570       0.00187275       0.16098733
C       -2.37864020       7.06487758      15.03008024       10      -0.00171917      -0.00028646       0.21061047
C       -4.80280570       8.46412559      15.03008024       10       0.00284044       0.00039254       0.14338384
C       -3.59075203       9.16407957      15.03008024       10       0.00119644       0.00062631       0.11799095
C        2.46966538       0.06745851      15.03008024       10      -0.00130766       0.00010253       0.12366820
C        3.68153979       0.76740744      15.03008024       10      -0.00491228      -0.00017589       0.10936270
C        1.25696274       2.16733313      15.03008024       10       0.00360370       0.00139438       0.12619484
C        2.46910449       2.86692543      15.03008024       10       0.00015204       0.00055657       0.10068536
C        0.04506810       4.26714787      15.03008024       10      -0.00130463       0.00048313       0.07984117
C        1.25724635       4.96624323      15.03008024       10      -0.00173110       0.00237453       0.20461933
C       -1.16642916       6.36560182      15.03008024       10      -0.00357609       0.00172759       0.05103371
C        0.04539634       7.06517475      15.03008024       10      -0.00161887       0.00179211       0.21343667
C       -2.37821285       8.46409097      15.03008024       10       0.00205674       0.00106794       0.07379769
C       -1.16666244       9.16418295      15.03008024       10       0.00175736       0.00225077       0.21418088
C        4.89373317       0.06722422      15.03008024       10      -0.00255135       0.00009707       0.12536641
C        6.10515479       0.76757537      15.03008024       10      -0.00003231      -0.00161268       0.16517200
C        3.68129055       2.16709619      15.03008024       10       0.00315980       0.00082255       0.20047681
C        4.89306319       2.86689892      15.03008024       10       0.00415366       0.00001126       0.09013025
C        2.46908751       4.26684510      15.03008024       10       0.00009630      -0.00091052       0.13973527
C        3.68118063       4.96605756      15.03008024       10      -0.00005174       0.00156154       0.15373966
C        1.25722965       6.36574738      15.03008024       10      -0.00397523       0.00038845       0.03884914
C        2.46925687       7.06512622      15.03008024       10      -0.00297114      -0.00020858       0.21984466
C        0.04521151       8.46431643      15.03008024       10       0.00016372       0.00179982       0.02942408
C        1.25679445       9.16448930      15.03008024       10       0.00282758       0.00016573       0.22107417
C        7.31678203       0.06750147      15.03008024       10      -0.00161364      -0.00193800       0.12610806
C        8.52885416       0.76767231      15.03008024       10      -0.00186040      -0.00063537       0.12126934
C        6.10468940       2.16682946      15.03008024       10       0.00202153      -0.00137039       0.22581253
C        7.31625381       2.86690421      15.03008024       10       0.00400617      -0.00117900       0.08649379
C        4.89278251       4.26624239      15.03008024       10       0.00192122      -0.00193584       0.22710519
C        6.10489851       4.96535623      15.03008024       10       0.00162491       0.00004979       0.07917466
C        3.68087403       6.36537891      15.03008024       10      -0.00008061      -0.00003389       0.14265835
C        4.89330186       7.06479745      15.03008024       10      -0.00337792      -0.00088298       0.12032067
C        2.46825547       8.46436291      15.03008024       10       0.00521718       0.00072053       0.06333943
C        3.68069641       9.16429064      15.03008024       10       0.00171468       0.00042828       0.13315767
C        9.74063789       0.06758636      15.03008024       10      -0.00110813       0.00009066       0.12613181
C       10.95303776       0.76751894      15.03008024       10      -0.00254877       0.00022706       0.06258627
C        8.52822405       2.16723313      15.03008024       10       0.00210451       0.00094294       0.20848659
C        9.74040932       2.86700430      15.03008024       10       0.00342807      -0.00135738       0.10170429
C        7.31685259       4.26612251      15.03008024       10       0.00036853       0.00087577       0.22518802
C        8.52874057       4.96586194      15.03008024       10       0.00072849      -0.00045347       0.13859036
C        6.10521625       6.36475469      15.03008024       10      -0.00211506       0.00215218       0.21403552
C        7.31725849       7.06466283      15.03008024       10      -0.00261348      -0.00099068       0.10944865
C        4.89254621       8.46422746      15.03008024       10       0.00515829       0.00198163       0.13484869
C        6.10492661       9.16416596      15.03008024       10       0.00290782       0.00083402       0.06282905
