131
Lattice="12.12 0.0 0.0 -6.06 10.496227893867395 0.0 0.0 0.0 40.0" Properties=species:S:1:pos:R:3:tags:I:1:forces:R:3 stress="0.0026709513820815257 4.6396570911972127e-07 -2.0085931064476848e-06 4.6396570911972127e-07 0.0026695990446394756 -4.984936931836942e-06 -2.0085931064476848e-06 -4.984936931836942e-06 0.002993154363013547" energy=-1203.870468108806 pbc="T T F"
C        0.24519247      -0.08242408       9.98528064        2      -0.00284895       0.00037771       0.00088574
Ti       0.25869666       1.65565248       8.70232558        0       0.00048777      -0.00198042      -0.00263767
Ti       1.77506715       0.79592428      11.28461618        0       0.00248397       0.00143136       0.00049686
O        0.23797889       1.67865483      12.23008024        3      -0.00167249      -0.00283123      -0.31628510
O        1.78608881       0.77057521       7.78664620        1      -0.00053429      -0.00228165       0.00039577
C       -1.25814538       2.53200035       9.99062057        2       0.00017216      -0.00148444      -0.00031177
Ti      -1.25895208       4.28405579       8.70122563        0      -0.00094234      -0.00149732      -0.00037756
Ti       0.25784967       3.40747756      11.29670651        0      -0.00033109      -0.00204343       0.00103839
O       -1.24898865       4.25294722      12.23008024        3      -0.00014911       0.00099411      -0.32179051
O        0.25825001       3.40717203       7.76101716        1      -0.00294934      -0.00110145      -0.00337291
C       -2.77084419       5.14008261       9.98322108        2       0.00085476      -0.00080058       0.00272354
Ti      -2.77053050       6.91282144       8.75980439        0      -0.00106925      -0.00129902      -0.00086137
Ti      -1.24431846       6.02582196      11.28400896        0      -0.00034646      -0.00416778      -0.00121246
O       -2.76994063       6.67770143      12.23008024        3      -0.00157993       0.00284868      -0.42598036
O       -1.26152131       6.04939927       7.78597833        1       0.00004944       0.00046483       0.00152567
C       -4.27704287       7.78594657      10.07055918        2      -0.00288260      -0.00321294      -0.00078822
Ti      -4.28010324       9.52812117       8.75993645        0      -0.00209269       0.00137739      -0.00097864
Ti      -2.77255008       8.65239204      11.58046683        0       0.00138053      -0.00182878      -0.00061345
O       -4.47321335       9.64083839      12.23008024        3      -0.00048875      -0.00151859      -0.39023199
O       -2.77120105       8.65627182       7.82215653        1       0.00272481      -0.00147438       0.00032541
C        3.28881437      -0.09976954      10.06863503        2       0.00006494       0.00065807      -0.00061596
Ti       3.28922106       1.66372399       8.71083193        0      -0.00078452       0.00089575       0.00252322
Ti       4.80224775       0.79490706      11.28534897        0      -0.00082066       0.00327875      -0.00120684
O        3.28870540       1.68185880      12.23008024        3       0.00070229      -0.00127335      -0.22334078
O        4.79235680       0.77009504       7.78669696        1      -0.00013695       0.00229984       0.00102228
C        1.77118894       2.54353779       9.99310282        2       0.00202094      -0.00138802      -0.00358985
Ti       1.77096562       4.28113713       8.70094006        0       0.00239387      -0.00045628      -0.00112198
Ti       3.28892603       3.41481066      11.28200581        0       0.00119549      -0.00236756       0.00094380
O        1.77775199       4.28497098      12.23008024        3       0.00245439       0.00153944      -0.31797010
O        3.28940039       3.39807714       7.76531324        1       0.00047803      -0.00051524      -0.00108946
C        0.26672451       5.14947239       9.99240682        2      -0.00041212       0.00220047       0.00146455
Ti       0.26336204       6.90441434       8.71084199        0       0.00137327      -0.00065030       0.00175615
Ti       1.77984914       6.02936560      11.28221717        0       0.00018870      -0.00137983       0.00082468
O        0.27872991       6.89482369      12.23008024        3      -0.00158322      -0.00107261      -0.22591431
O        1.76556283       6.03763911       7.76516061        1       0.00121222      -0.00051352      -0.00008574
C       -1.26396407       7.78519641      10.06908385        2      -0.00245859      -0.00026494       0.00503988
Ti      -1.26133228       9.52794171       8.75978638        0      -0.00093227       0.00048694      -0.00078355
Ti       0.26778358       8.64925269      11.28529374        0       0.00207902       0.00121937      -0.00152957
O       -1.07314081       9.63706753      12.23008024        3      -0.00329386      -0.00101212      -0.37286334
O        0.24138176       8.65302317       7.78661067        1      -0.00075492      -0.00197068       0.00251836
C        6.33252706      -0.08275630       9.98606084        2       0.00019576      -0.00163617      -0.00208941
Ti       6.31947580       1.65573554       8.70242572        0      -0.00021038      -0.00210073       0.00018154
Ti       7.83753760       0.78646662      11.28753805        0      -0.00198973      -0.00002619       0.00052280
O        6.33946730       1.67762568      12.23008024        3       0.00114305      -0.00075569      -0.31432641
O        7.83396364       0.78390120       7.75782131        1       0.00266141       0.00166444      -0.00055695
C        4.80701044       2.54319488       9.99357691        2      -0.00305061      -0.00261398      -0.00378127
Ti       4.80755795       4.28110563       8.70198359        0      -0.00285479       0.00041440      -0.00439620
Ti       6.32015347       3.40712551      11.29724927        0       0.00250678      -0.00206008       0.00031303
O        4.80018023       4.28499323      12.23008024        3      -0.00230912       0.00033477      -0.31458389
O        6.32059363       3.40706315       7.76139497        1      -0.00213561      -0.00065397      -0.00234198
C        3.28917953       5.15772064       9.99032057        2      -0.00055427      -0.00007322       0.00066848
Ti       3.28923284       6.91082642       8.70178554        0       0.00064803      -0.00247054      -0.00172103
Ti       4.79858487       6.02964505      11.28308841        0       0.00074453      -0.00171898       0.00057513
O        3.28893302       6.90286144      12.23008024        3      -0.00045670      -0.00361758      -0.31567567
O        4.81293801       6.03750276       7.76584984        1       0.00121253      -0.00011686      -0.00099223
C        1.78390256       7.77951097       9.99354406        2      -0.00248179      -0.00196399       0.00096145
Ti       1.77137809       9.53275487       8.70242239        0       0.00006596       0.00028429      -0.00001309
Ti       3.28858781       8.65885034      11.29689766        0       0.00259020      -0.00035096       0.00129843
O        1.80084901       9.53995473      12.23008024        3      -0.00161842      -0.00155530      -0.31374917
O        3.28927284       8.65803203       7.76172828        1      -0.00187790       0.00082959      -0.00201611
C        9.34884754      -0.08790118       9.99123524        2       0.00085985      -0.00103968       0.00058983
Ti       9.34919639       1.65854361       8.69894886        0      -0.00141032      -0.00084072      -0.00150516
Ti      10.86004721       0.78687913      11.28831286        0       0.00169366      -0.00170114      -0.00359151
O        9.34884129       1.65885998      12.23008024        3       0.00181204      -0.00066517      -0.29730221
O       10.86402993       0.78393143       7.75755173        1      -0.00306855       0.00169414       0.00107065
C        7.83617792       2.53188124       9.99101931        2      -0.00033618      -0.00127737      -0.00301528
Ti       7.83731648       4.28402314       8.70167619        0       0.00073244       0.00008571      -0.00020157
Ti       9.34920513       3.40331552      11.28703508        0      -0.00131039      -0.00045634       0.00101009
O        7.82740215       4.25307798      12.23008024        3       0.00013160      -0.00165958      -0.31878221
O        9.34902401       3.40754490       7.75689215        1       0.00003816      -0.00480600      -0.00135264
C        6.31176313       5.14946460       9.99334531        2       0.00040235       0.00218695      -0.00340076
Ti       6.31510531       6.90442426       8.71148764        0      -0.00227507      -0.00046258       0.00262081
Ti       7.82324543       6.02567260      11.28448828        0      -0.00446587      -0.00195118      -0.00069781
O        6.29942489       6.89515885      12.23008024        3       0.00236011      -0.00082527      -0.22418084
O        7.83994551       6.04980397       7.78669603        1      -0.00260271      -0.00214026       0.00038544
C        4.79420613       7.77954086       9.99389581        2       0.00010769      -0.00118782      -0.00194836
Ti       4.80687708       9.53292359       8.70275597        0       0.00147529      -0.00077582      -0.00237914
Ti       6.30934822       8.65004164      11.28507386        0      -0.00073643      -0.00343255       0.00080397
O        4.77634033       9.54015552      12.23008024        3       0.00052780       0.00106566      -0.31348729
O        6.33694960       8.65252418       7.78728905        1       0.00098418       0.00020769       0.00042483
C       -0.36507850       0.21180163      15.36175388       10      -0.00493473      -0.00360607       0.13718666
C        0.84529959       0.91177644      15.34646183       10       0.00632119      -0.00293311       0.10708371
C       -1.57497243       2.31018071      15.36707458       10       0.00215493      -0.00312400       0.11331228
C       -0.36304235       3.00991463      15.34936415       10       0.00051430      -0.00185737       0.08154220
C       -2.78702464       4.40728542      15.36175388       10       0.00149190       0.00067245       0.13470249
C       -1.57575659       5.10583174      15.34646183       10      -0.00336236       0.00347539       0.11055372
C       -3.99335053       6.51236172      15.29864313       10       0.00147709       0.00056279       0.10336496
C       -2.78691232       7.19468878      15.25682091       10      -0.00274756       0.00409065      -0.41708877
C       -5.20564580       8.61074526      15.29864313       10      -0.00325388      -0.00071857       0.10491465
C       -4.01239926       9.31517048      15.25682091       10       0.00570509       0.00016480      -0.34725838
C        2.06088568       0.20459367      15.29864313       10      -0.00093352      -0.00038061       0.11339145
C        3.27305606       0.91055272      15.26656445       10      -0.00173487       0.00002070       0.34318348
C        0.84881101       2.30900646      15.33541886       10      -0.00214065      -0.00364659       0.08955065
C        2.06082995       3.00879841      15.31350445       10       0.00103737      -0.00024546       0.06482149
C       -0.36410920       4.40991468      15.33541886       10      -0.00236119       0.00195681       0.08687279
C        0.84822676       5.10911791      15.31350445       10       0.00081835       0.00021599       0.06649574
C       -1.58056897       6.51231437      15.29864313       10      -0.00265653       0.00227875       0.10618287
C       -0.36272793       7.20815154      15.26656445       10      -0.00156098       0.00352129       0.34495115
C       -2.78631793       8.60991620      14.80401525       10      -0.00292754       0.00122434       1.04773715
C       -1.56103512       9.31555641      15.25682091       10      -0.00318021      -0.00147271      -0.31651614
C        4.48532991       0.20478961      15.29864313       10      -0.00154356       0.00113402       0.11380361
C        5.70078628       0.91183060      15.34646183       10      -0.00316542      -0.00053631       0.10540295
C        3.27291470       2.30602629      15.29889816       10      -0.00019720       0.00038952       0.04639132
C        4.48497257       3.00870924      15.31350445       10       0.00079221       0.00195596       0.06434533
C        2.06022354       4.40858919      15.31082284       10      -0.00116735       0.00239113       0.13075266
C        3.27283520       5.10856331      15.30582207       10       0.00213919       0.00014872       0.08519482
C        0.84561664       6.51017462      15.29889816       10       0.00099286       0.00083048       0.04262275
C        2.06023812       7.20836176      15.31350445       10       0.00206951       0.00231971       0.06426269
C       -0.36814078       8.61080442      15.29864313       10       0.00090634       0.00162957       0.10842815
C        0.85202269       9.30983775      15.34646183       10      -0.00093961       0.00060090       0.10533353
C        6.91108978       0.21177580      15.36175388       10       0.00248008       0.00174299       0.13807559
C        8.12239900       0.91122849      15.36869240       10       0.00043073       0.00108883       0.06844812
C        5.69706850       2.30897415      15.33541886       10       0.00146284      -0.00069480       0.08980263
C        6.90892043       3.00977380      15.34936415       10       0.00082809       0.00296899       0.08083128
C        4.48554542       4.40852945      15.31082284       10       0.00065982       0.00300338       0.13012648
C        5.69759847       5.10898887      15.31350445       10       0.00142810       0.00183951       0.06637459
C        3.27282549       6.50881813      15.31082284       10       0.00073547       0.00275342       0.12829741
C        4.48541562       7.20829015      15.31350445       10       0.00359089       0.00301334       0.06468690
C        2.06002508       8.60794822      15.33541886       10       0.00367033       0.00225711       0.08748371
C        3.27282978       9.30719133      15.34936415       10       0.00388687       0.00052402       0.07898137
C        9.33298250       0.21042098      15.36707458       10      -0.00217747      -0.00034407       0.12034238
C       10.54347072       0.91126733      15.36869240       10       0.00508792       0.00125900       0.06796099
C        8.12081337       2.31009251      15.36707458       10       0.00290779       0.00019701       0.11527784
C        9.33296114       3.00825405      15.36869240       10      -0.00290878       0.00374126       0.06880129
C        6.91004181       4.40983856      15.33541886       10       0.00166891       0.00381161       0.08598242
C        8.12179990       5.10576555      15.34646183       10      -0.00234169       0.00515002       0.11060670
C        5.70017265       6.51007330      15.29889816       10       0.00140048       0.00395104       0.04014996
C        6.90868055       7.20802252      15.26656445       10      -0.00070660       0.00509201       0.34626494
C        4.48573370       8.60790927      15.33541886       10      -0.00090108       0.00203750       0.08606406
C        5.69385688       9.30973446      15.34646183       10       0.00847584       0.00300176       0.10717044
O       -2.78012333       8.63089886      13.44175815       11       0.00230753      -0.00097527       0.00547984
