130
Lattice="12.12 0.0 0.0 -6.06 10.496227893867395 0.0 0.0 0.0 40.0" Properties=species:S:1:pos:R:3:tags:I:1:forces:R:3 energy=-1200.4365954833436 stress="0.002851223844475811 6.691958373902026e-08 -6.892725139054217e-08 6.691958373902026e-08 0.002851131192074931 -3.064520643945509e-07 -6.892725139054217e-08 -3.064520643945509e-07 0.002008591566112162" pbc="T T F"
C        0.00000280       0.00000445      10.00114208        2      -0.00000806      -0.00004310       0.00077260
Ti      -0.00000297       1.74938074       8.71020856        0      -0.00000934       0.00000510       0.00108044
Ti       1.51493841       0.87465491      11.29089958        0      -0.00001627      -0.00003758       0.00068070
O       -0.00011632       1.74985595      12.23008024        3       0.00005421      -0.00009834       0.08408993
O        1.51498309       0.87467203       7.77062143        1      -0.00002644      -0.00002219       0.00123525
C       -1.51504366       2.62404955      10.00100706        2      -0.00000328      -0.00001559       0.00083525
Ti      -1.51500907       4.37341538       8.71022787        0      -0.00002102      -0.00000028       0.00109936
Ti      -0.00001498       3.49878116      11.29084758        0      -0.00002237      -0.00001662       0.00068762
O       -1.51501704       4.37322439      12.23008024        3      -0.00003146       0.00002224       0.07873920
O       -0.00000467       3.49879252       7.77064793        1      -0.00002616      -0.00000245       0.00126596
C       -3.02999974       5.24811182      10.00116898        2      -0.00002553      -0.00002860       0.00080079
Ti      -3.03001500       6.99748293       8.71022638        0      -0.00001385      -0.00004184       0.00108119
Ti      -1.51491894       6.12285371      11.29084051        0       0.00001932      -0.00002573       0.00072256
O       -3.03020899       6.99757984      12.23008024        3       0.00002097      -0.00006082       0.08347440
O       -1.51497626       6.12281563       7.77066933        1       0.00000257      -0.00001861       0.00127485
C       -4.54502688       7.87211525      10.00100524        2       0.00000941      -0.00005228       0.00082795
Ti      -4.54499444       9.62153352       8.71021614        0      -0.00000063      -0.00001435       0.00107609
Ti      -3.02998417       8.74681290      11.29084122        0      -0.00000894      -0.00006079       0.00065318
O       -4.54470989       9.62116634      12.23008024        3      -0.00000988      -0.00002690       0.08711217
O       -3.02995973       8.74682526       7.77064827        1      -0.00002040      -0.00004407       0.00124061
C        3.02996411       0.00000798      10.00101584        2      -0.00000173      -0.00006377       0.00078872
Ti       3.02998499       1.74936040       8.71021441        0      -0.00002163      -0.00001594       0.00104867
Ti       4.54496541       0.87459038      11.29086034        0      -0.00006104      -0.00004896       0.00067380
O        3.03004766       1.74935066      12.23008024        3      -0.00007437      -0.00007761       0.09166179
O        4.54502659       0.87465848       7.77063954        1      -0.00004629      -0.00001378       0.00122836
C        1.51500123       2.62402163      10.00101950        2      -0.00004734      -0.00000976       0.00076356
Ti       1.51500538       4.37341712       8.71022287        0      -0.00001268      -0.00000533       0.00106694
Ti       3.02993581       3.49874289      11.29086561        0      -0.00006414      -0.00007939       0.00070298
O        1.51501076       4.37323519      12.23008024        3      -0.00003287       0.00000845       0.08092476
O        3.02999441       3.49877596       7.77063865        1      -0.00002334      -0.00003169       0.00125652
C       -0.00000244       5.24819732      10.00118111        2       0.00000563      -0.00001140       0.00080367
Ti       0.00000014       6.99748798       8.71019041        0       0.00001140      -0.00001717       0.00110140
Ti       1.51497448       6.12284010      11.29081935        0       0.00006764      -0.00002636       0.00072378
O        0.00010878       6.99759312      12.23008024        3       0.00003834      -0.00001920       0.11449511
O        1.51497187       6.12281657       7.77065988        1      -0.00000459      -0.00001986       0.00126561
C       -1.51493959       7.87213564      10.00118692        2      -0.00001158      -0.00003427       0.00079104
Ti      -1.51500911       9.62154870       8.71021779        0      -0.00000539      -0.00002575       0.00104896
Ti       0.00002234       8.74684413      11.29081214        0       0.00000640      -0.00000314       0.00069558
O       -1.51522870       9.62163086      12.23008024        3       0.00001281      -0.00009634       0.08491087
O       -0.00000061       8.74682762       7.77065894        1      -0.00000340      -0.00002723       0.00124080
C        6.06000339      -0.00003261      10.00112050        2      -0.00002476      -0.00002880       0.00077672
Ti       6.05999500       1.74936558       8.71020534        0      -0.00002744      -0.00003486       0.00104647
Ti       7.57500215       0.87459592      11.29085623        0      -0.00001089      -0.00004296       0.00068023
O        6.05989662       1.74907990      12.23008024        3      -0.00002845      -0.00008303       0.10318389
O        7.57496993       0.87466645       7.77063670        1       0.00000254      -0.00000933       0.00122419
C        4.54500833       2.62405169      10.00107257        2      -0.00005134      -0.00008889       0.00074526
Ti       4.54499621       4.37342058       8.71020410        0      -0.00002100      -0.00004359       0.00105636
Ti       6.05993432       3.49866026      11.29086858        0      -0.00003522      -0.00013380       0.00071655
O        4.54477528       4.37334586      12.23008024        3       0.00002052      -0.00018012       0.10271971
O        6.06000618       3.49874606       7.77063754        1      -0.00002879      -0.00002500       0.00126310
C        3.02998741       5.24811965      10.00112534        2       0.00000586      -0.00003723       0.00078618
Ti       3.03001282       6.99748341       8.71020967        0       0.00000385      -0.00001660       0.00105394
Ti       4.54493966       6.12280459      11.29085760        0      -0.00000088      -0.00012247       0.00070219
O        3.03026885       6.99758773      12.23008024        3       0.00004323      -0.00001294       0.08907931
O        4.54497344       6.12277748       7.77063737        1      -0.00000166      -0.00004402       0.00124014
C        1.51496789       7.87215147      10.00118523        2       0.00002757      -0.00001614       0.00076753
Ti       1.51500954       9.62155129       8.71020639        0      -0.00000578      -0.00002551       0.00104584
Ti       3.02998617       8.74682821      11.29082817        0       0.00004495      -0.00003025       0.00068247
O        1.51529221       9.62168265      12.23008024        3      -0.00002473      -0.00006604       0.08831715
O        3.02996069       8.74683064       7.77064067        1       0.00000100      -0.00002307       0.00121936
C        9.09000352       0.00001888      10.00100930        2       0.00000921      -0.00003020       0.00081981
Ti       9.09000986       1.74936445       8.71021181        0      -0.00000843      -0.00001229       0.00104910
Ti      10.60501882       0.87467581      11.29088579        0      -0.00001847      -0.00003112       0.00069634
O        9.08998029       1.74932278      12.23008024        3      -0.00000703      -0.00003554       0.09065992
O       10.60500063       0.87467552       7.77062398        1      -0.00001487      -0.00000588       0.00123067
C        7.57495581       2.62405886      10.00111019        2       0.00000032      -0.00006664       0.00076460
Ti       7.57498976       4.37341831       8.71021211        0      -0.00003355      -0.00004036       0.00108418
Ti       9.09000201       3.49875638      11.29087446        0      -0.00002257      -0.00005357       0.00070012
O        7.57495053       4.37331038      12.23008024        3      -0.00002508      -0.00005034       0.10661366
O        9.08998943       3.49878336       7.77064636        1       0.00000075      -0.00001762       0.00125799
C        6.05998922       5.24805466      10.00113269        2      -0.00002342      -0.00004615       0.00077964
Ti       6.06000116       6.99749516       8.71020853        0      -0.00001999      -0.00003229       0.00105325
Ti       7.57502665       6.12277565      11.29087102        0      -0.00002580      -0.00008956       0.00068364
O        6.05998703       6.99750465      12.23008024        3      -0.00000412      -0.00007951       0.09254084
O        7.57503016       6.12276783       7.77064651        1      -0.00001375      -0.00003289       0.00125555
C        4.54502225       7.87213294      10.00101051        2       0.00001594      -0.00005874       0.00078778
Ti       4.54499193       9.62153743       8.71021922        0       0.00000777      -0.00001711       0.00106833
Ti       6.05999617       8.74685058      11.29088256        0       0.00001274      -0.00011688       0.00067428
O        4.54474180       9.62130772      12.23008024        3       0.00011540      -0.00001405       0.08946814
O        6.05999373       8.74685379       7.77062819        1       0.00000050      -0.00005086       0.00122478
C        0.04504158       0.06755473      17.49161870       10       0.00033397       0.00029764      -0.02491657
C        1.25712949       0.76735033      17.49161870       10      -0.00323586      -0.00127910      -0.02437878
C       -1.16702316       2.16678730      17.49161870       10       0.00018305       0.00205659      -0.02674643
C        0.04501213       2.86656199      17.49161870       10      -0.00004176      -0.00115349      -0.02779769
C       -2.37900711       4.26600692      17.49161870       10      -0.00100940       0.00058847      -0.03393249
C       -1.16698673       4.96579632      17.49161870       10       0.00086040      -0.00045527      -0.03382152
C       -3.59103926       6.36531969      17.49161870       10      -0.00104651       0.00162949      -0.03494947
C       -2.37900428       7.06511844      17.49161870       10       0.00077228      -0.00187969      -0.03511453
C       -4.80303342       8.46454040      17.49161870       10       0.00122300       0.00077431      -0.02870643
C       -3.59100596       9.16432666      17.49161870       10      -0.00073121      -0.00034715      -0.02921530
C        2.46911253       0.06760047      17.49161870       10       0.00149238       0.00007532      -0.02617962
C        3.68115839       0.76736036      17.49161870       10      -0.00227622      -0.00034289      -0.03548427
C        1.25705541       2.16683996      17.49161870       10       0.00208728       0.00161726      -0.02557759
C        2.46911631       2.86660586      17.49161870       10      -0.00209438       0.00018216      -0.03488582
C        0.04503638       4.26600221      17.49161870       10      -0.00084949       0.00021592      -0.03176335
C        1.25704699       4.96580594      17.49161870       10      -0.00101350       0.00161086      -0.03524345
C       -1.16704620       6.36526282      17.49161870       10      -0.00051410       0.00116962      -0.02544552
C        0.04497001       7.06500670      17.49161870       10       0.00108366       0.00006186      -0.02389292
C       -2.37908336       8.46459482      17.49161870       10       0.00084161       0.00087547      -0.03007888
C       -1.16699397       9.16426399      17.49161870       10       0.00044980       0.00163311      -0.03581024
C        4.89304763       0.06763007      17.49161870       10      -0.00000870      -0.00119589      -0.03422341
C        6.10503572       0.76734947      17.49161870       10       0.00076050      -0.00010831      -0.02946031
C        3.68111184       2.16686377      17.49161870       10       0.00148018       0.00008809      -0.03829529
C        4.89302059       2.86657671      17.49161870       10       0.00076228       0.00087816      -0.02249897
C        2.46906874       4.26606088      17.49161870       10       0.00098163      -0.00231412      -0.03436049
C        3.68102922       4.96580611      17.49161870       10      -0.00094830       0.00242933      -0.02809546
C        1.25702689       6.36528036      17.49161870       10      -0.00073106      -0.00072833      -0.02489441
C        2.46897780       7.06507500      17.49161870       10      -0.00142230       0.00001925      -0.03582669
C        0.04497241       8.46453248      17.49161870       10      -0.00072825       0.00025480      -0.02466870
C        1.25695383       9.16425727      17.49161870       10       0.00005860       0.00131831      -0.03457222
C        7.31702966       0.06762584      17.49161870       10      -0.00044505      -0.00151059      -0.03369792
C        8.52899530       0.76730728      17.49161870       10      -0.00080785      -0.00073275      -0.03585310
C        6.10504723       2.16689667      17.49161870       10      -0.00106100       0.00006577      -0.03389106
C        7.31704122       2.86658844      17.49161870       10       0.00054736      -0.00101576      -0.02264129
C        4.89303735       4.26608070      17.49161870       10       0.00103486      -0.00149446      -0.03023810
C        6.10501723       4.96582569      17.49161870       10       0.00088914      -0.00008069      -0.02269012
C        3.68102749       6.36530879      17.49161870       10       0.00211416      -0.00007049      -0.03460352
C        4.89300406       7.06505804      17.49161870       10      -0.00203956      -0.00150338      -0.03531949
C        2.46897089       8.46456584      17.49161870       10       0.00229132       0.00046466      -0.02708680
C        3.68093666       9.16426208      17.49161870       10      -0.00144486       0.00005342      -0.03091765
C        9.74094832       0.06752838      17.49161870       10       0.00070367       0.00047337      -0.02901233
C       10.95299817       0.76729548      17.49161870       10      -0.00120141      -0.00065444      -0.02405694
C        8.52894570       2.16680897      17.49161870       10      -0.00078119       0.00201489      -0.04015438
C        9.74096991       2.86656344      17.49161870       10       0.00107310      -0.00150159      -0.03490378
C        7.31703991       4.26607447      17.49161870       10      -0.00082703       0.00057390      -0.02622744
C        8.52902600       4.96583997      17.49161870       10       0.00103170      -0.00043909      -0.02647773
C        6.10501016       6.36522837      17.49161870       10       0.00006220       0.00125159      -0.04129026
C        7.31700194       7.06509969      17.49161870       10      -0.00018549      -0.00191955      -0.03469546
C        4.89288639       8.46448316      17.49161870       10       0.00322447       0.00138277      -0.03028275
C        6.10494404       9.16425784      17.49161870       10      -0.00032692      -0.00018180      -0.02378526
