131
Lattice="12.12 0.0 0.0 -6.06 10.496227893867395 0.0 0.0 0.0 40.0" Properties=species:S:1:pos:R:3:tags:I:1:forces:R:3 stress="0.0028140564737441946 -4.945649868402613e-06 4.085150477015734e-06 -4.945649868402613e-06 0.002807011119138548 1.2649365398559277e-06 4.085150477015734e-06 1.2649365398559277e-06 0.002525889818517889" energy=-1205.2155084027534 pbc="T T F"
C       -0.00003344       0.00007645      10.00040708        2       0.00035099       0.00015230       0.00122166
Ti       0.00130160       1.74887487       8.69773761        0       0.00080647       0.00003674      -0.00492694
Ti       1.52042667       0.87912544      11.31454377        0       0.00083693      -0.00088708       0.00590447
O        0.00085488       1.74642487      12.23008024        3      -0.00021896       0.00026513      -0.00832064
O        1.51740181       0.87163296       7.77859465        1       0.00121181      -0.00077682       0.00467601
C       -1.51464696       2.62320173      10.00101417        2       0.00076621      -0.00035997       0.00020666
Ti      -1.51429456       4.37643106       8.69951239        0       0.00016714       0.00009259      -0.00523939
Ti      -0.00190257       3.49745266      11.32046475        0       0.00215048       0.00091041       0.00148080
O       -1.51405085       4.37280449      12.23008024        3       0.00071166      -0.00196443      -0.00736690
O       -0.00036273       3.49860741       7.77355719        1       0.00021836      -0.00004165       0.00242839
C       -3.03084101       5.24404080      10.00009456        2       0.00023595      -0.00104458       0.00147742
Ti      -3.03242950       6.99321218       8.71435230        0       0.00063098       0.00021466      -0.00304200
Ti      -1.51089065       6.12784489      11.31779540        0      -0.00096425       0.00015399       0.00625661
O       -3.03755855       6.97102556      12.23008024        3       0.00124773      -0.00123907      -0.16393162
O       -1.51687886       6.12771892       7.78054613        1      -0.00023860       0.00040379       0.00501263
C       -4.54608392       7.87047608      10.01446362        2       0.00079877      -0.00002924       0.00483274
Ti      -4.54705431       9.62264118       8.71100599        0       0.00030240       0.00042393      -0.00337136
Ti      -3.00960249       8.73984525      11.42353291        0       0.00260679      -0.00090635      -0.00308850
O       -4.55471221       9.62829648      12.23008024        3      -0.00093954       0.00127665       0.02525104
O       -3.02834650       8.74615517       7.80070052        1      -0.00015246       0.00049481       0.00574220
C        3.03133749       0.00230253      10.01455336        2       0.00082121       0.00007146       0.00429006
Ti       3.02971103       1.74672384       8.70677719        0       0.00122196       0.00096436      -0.00309512
Ti       4.54492970       0.88758071      11.30621696        0       0.00220284      -0.00269934       0.00831754
O        3.02865883       1.75494885      12.23008024        3       0.00108619       0.00002195       0.01566974
O        4.54384475       0.87247467       7.77856008        1       0.00043407      -0.00114077       0.00511292
C        1.51345753       2.62734595      10.00045239        2       0.00109451       0.00065753       0.00152314
Ti       1.51391855       4.37350219       8.69839541        0       0.00087850       0.00095947      -0.00476869
Ti       3.02835723       3.49982804      11.31879442        0       0.00057398       0.00049415      -0.00017947
O        1.51245677       4.37170505      12.23008024        3       0.00150978       0.00035248      -0.00598670
O        3.02960401       3.49555811       7.77490237        1      -0.00003576      -0.00003691       0.00160959
C        0.00108279       5.24491761       9.99960558        2       0.00040826      -0.00029982       0.00199775
Ti      -0.00069766       6.99805034       8.70564221        0      -0.00050186       0.00092563      -0.00219614
Ti       1.51649298       6.12186185      11.31559538        0      -0.00003429       0.00033962       0.00229719
O        0.01128753       6.99058326      12.23008024        3       0.00080559       0.00014959      -0.02510037
O        1.51164620       6.12505892       7.77614032        1      -0.00098265       0.00090260       0.00296209
C       -1.51510679       7.87297808      10.02545543        2       0.00041204       0.00008277       0.00295536
Ti      -1.51191637       9.62616739       8.71440490        0       0.00041032       0.00017549      -0.00311317
Ti      -0.00255558       8.74141298      11.31755956        0      -0.00068674       0.00217069       0.00659937
O       -1.49113387       9.64686672      12.23008024        3       0.00183239       0.00011288      -0.22882673
O       -0.00465717       8.74620462       7.78036908        1      -0.00002702       0.00094015       0.00513864
C        6.06449302       0.00394440       9.99886271        2       0.00154310       0.00096284       0.00174559
Ti       6.06019588       1.74870164       8.69899432        0       0.00046332       0.00061414      -0.00533732
Ti       7.57509143       0.87421091      11.32140295        0       0.00099227       0.00106749       0.00035526
O        6.06278634       1.75073733      12.23008024        3       0.00201632       0.00157383      -0.00553585
O        7.57518252       0.87447738       7.77519647        1       0.00063844       0.00025454       0.00186218
C        4.54674513       2.63041983      10.00124189        2       0.00069623       0.00062625       0.00010856
Ti       4.54449527       4.37384954       8.69265570        0       0.00009298      -0.00001417      -0.00426000
Ti       6.06116459       3.49905756      11.31888052        0      -0.00137026       0.00144957      -0.00010679
O        4.54414660       4.37380741      12.23008024        3      -0.00067116       0.00075620      -0.00772170
O        6.06031226       3.49911249       7.77325765        1       0.00084786       0.00007706       0.00110272
C        3.03037061       5.24786926      10.00218345        2      -0.00002515       0.00035791      -0.00047784
Ti       3.02944786       6.99836467       8.69902511        0      -0.00026759      -0.00081872      -0.00466426
Ti       4.54346626       6.12370717      11.31914272        0       0.00047856       0.00004546      -0.00015570
O        3.02937844       6.99981394      12.23008024        3       0.00057241      -0.00089405      -0.00459399
O        4.54780900       6.12531928       7.77553717        1       0.00016967       0.00044409       0.00155449
C        1.51830834       7.87294307      10.00009649        2       0.00093761       0.00061928       0.00190192
Ti       1.51311004       9.61995195       8.69929678        0       0.00041390       0.00054482      -0.00519705
Ti       3.03002596       8.74922998      11.32119729        0       0.00087591      -0.00172748       0.00136315
O        1.51554536       9.62153828      12.23008024        3       0.00268745       0.00109075      -0.00691452
O        3.03035025       8.74705929       7.77394047        1       0.00045540       0.00036183       0.00243623
C        9.09147450       0.00027309      10.00115891        2       0.00117712       0.00008667       0.00034736
Ti       9.09082806       1.74930114       8.69994103        0       0.00122101      -0.00020708      -0.00417860
Ti      10.60754916       0.87360530      11.31396097        0       0.00043035       0.00019240       0.00088128
O        9.09256058       1.74850001      12.23008024        3       0.00120894      -0.00029715      -0.01635401
O       10.60570329       0.87427895       7.77318601        1       0.00122635      -0.00032451       0.00209629
C        7.57658299       2.62398179      10.00168120        2       0.00032619       0.00029984       0.00037594
Ti       7.57576867       4.37399020       8.69931144        0       0.00033472       0.00011256      -0.00523701
Ti       9.09063535       3.49971127      11.32182688        0       0.00004029      -0.00048636       0.00037956
O        7.57603319       4.37188580      12.23008024        3       0.00007113      -0.00194708       0.00332443
O        9.09032178       3.49933322       7.77540535        1       0.00055597       0.00001462       0.00177145
C        6.05577179       5.24408658      10.00192556        2       0.00023984       0.00007157       0.00035474
Ti       6.06236707       6.99928675       8.70804397        0      -0.00022256      -0.00092900      -0.00352811
Ti       7.56480952       6.11843420      11.30715321        0       0.00296483      -0.00051539       0.00793005
O        6.05511203       6.99587187      12.23008024        3       0.00078985      -0.00018777       0.01928558
O        7.57650615       6.12543591       7.77919967        1       0.00136180       0.00108287       0.00499935
C        4.54177381       7.87209701      10.00177356        2       0.00038091      -0.00063123       0.00152891
Ti       4.54609040       9.62098242       8.69779342        0       0.00066245      -0.00015452      -0.00463824
Ti       6.05925756       8.74081588      11.31515212        0       0.00158101       0.00081909       0.00629913
O        4.54860756       9.62364090      12.23008024        3      -0.00005968       0.00065815      -0.00794434
O        6.06372203       8.74630639       7.77895036        1       0.00164041      -0.00006424       0.00475652
C        0.04083139       0.07008545      16.34636926       10       0.00175490       0.00036956      -0.00645676
C        1.24781871       0.77067800      16.33107721       10       0.00077107      -0.00090008       0.04618748
C       -1.16897355       2.16688672      16.35168996       10       0.00080709      -0.00200269      -0.01148271
C        0.04210223       2.86668338      16.33397953       10      -0.00202364      -0.00200387       0.01659613
C       -2.37961893       4.26502300      16.34636926       10      -0.00012064      -0.00385043       0.02380260
C       -1.17024328       4.95977204      16.33107721       10      -0.00183066      -0.00030617       0.01408952
C       -3.58720728       6.36763347      16.28325851       10       0.00073975      -0.00157720       0.07527542
C       -2.38152323       7.04821181      16.24143629       10      -0.00123136       0.00055779      -0.26842627
C       -4.80219297       8.47154953      16.28325851       10       0.00087542      -0.00182327       0.04050383
C       -3.61096221       9.17580992      16.24143629       10       0.00015005      -0.00277416      -0.18118554
C        2.46329254       0.06337460      16.28325851       10       0.00109439      -0.00001280       0.04301050
C        3.67816112       0.76877167      16.25117983       10      -0.00059012       0.00011863      -0.02552922
C        1.25342301       2.16785860      16.32003424       10      -0.00139886      -0.00145373      -0.00899885
C        2.46513953       2.86605431      16.29811983       10      -0.00242230      -0.00089082       0.01768838
C        0.04315126       4.26559087      16.32003424       10      -0.00178967      -0.00111854       0.01709858
C        1.25349074       4.96571253      16.29811983       10      -0.00200264      -0.00043547       0.00323519
C       -1.17461288       6.36752593      16.28325851       10      -0.00190035       0.00178567       0.11402887
C        0.04364818       7.06564165      16.25117983       10      -0.00145264      -0.00134217      -0.07383345
C       -2.38541143       8.46648901      15.78863063       10       0.00057620      -0.00064958       0.36922913
C       -1.15522033       9.17416804      16.24143629       10       0.00014317      -0.00209823      -0.29887737
C        4.89200930       0.06230992      16.28325851       10      -0.00126056       0.00198058       0.07445851
C        6.10931125       0.77010297      16.33107721       10      -0.00105855       0.00067099       0.02314267
C        3.67792237       2.16392052      16.28351354       10      -0.00294993      -0.00021141      -0.02190364
C        4.89232496       2.86606673      16.29811983       10      -0.00121727      -0.00083542       0.01877659
C        2.46631388       4.26712623      16.29543822       10      -0.00214519      -0.00032236       0.00223829
C        3.67943001       4.96651248      16.29043745       10      -0.00178072       0.00086367      -0.01861936
C        1.25211431       6.36793731      16.28351354       10      -0.00147420       0.00155493       0.03626321
C        2.46705695       7.06793215      16.29811983       10      -0.00030984       0.00145422      -0.00350528
C        0.03826815       8.46976633      16.28325851       10      -0.00084341      -0.00101597       0.11082736
C        1.25985796       9.16974293      16.33107721       10      -0.00000577      -0.00021463       0.00555976
C        7.31695509       0.06825948      16.34636926       10      -0.00004225       0.00296135       0.03138874
C        8.53007770       0.76951984      16.35330778       10       0.00016010       0.00102427       0.02454899
C        6.10385584       2.16704927      16.32003424       10      -0.00034506       0.00063737       0.01157447
C        7.31640825       2.86665425      16.33397953       10      -0.00057754      -0.00188770       0.01857723
C        4.89047893       4.26717038      16.29543822       10      -0.00167941       0.00133027      -0.01635588
C        6.10508419       4.96629832      16.29811983       10      -0.00214530       0.00131426       0.02082308
C        3.67844235       6.36684437      16.29543822       10      -0.00144726       0.00112069       0.00910563
C        4.89149776       7.06852122      16.29811983       10      -0.00130513      -0.00006150       0.01166069
C        2.46789033       8.46629828      16.32003424       10      -0.00108398       0.00073272       0.03150060
C        3.67923551       9.16683815      16.33397953       10      -0.00062861      -0.00134483       0.01502948
C        9.73970799       0.06925280      16.35168996       10      -0.00003715       0.00156153      -0.00505084
C       10.94852126       0.76983294      16.35330778       10      -0.00124143       0.00105844       0.04185395
C        8.52888339       2.16651419      16.35168996       10      -0.00039516       0.00052957       0.00315747
C        9.73977382       2.86409837      16.35330778       10      -0.00287248      -0.00054488       0.02251265
C        7.31582982       4.26612660      16.32003424       10      -0.00282629      -0.00029413       0.00642996
C        8.52862777       4.95980097      16.33107721       10      -0.00324735       0.00058956       0.02018384
C        6.10578138       6.36905694      16.28351354       10      -0.00129713       0.00104656      -0.02277162
C        7.31453368       7.06646610      16.25117983       10      -0.00279507       0.00028609      -0.03070214
C        4.89008258       8.46720500      16.32003424       10      -0.00067890      -0.00048845      -0.00181171
C        6.09758367       9.17057146      16.33107721       10      -0.00168934      -0.00059462       0.04509831
O       -2.39386751       8.45890876      14.46435232       11      -0.00035934       0.00020146      -0.00027215
