132
Lattice="12.12 0.0 0.0 -6.06 10.496227893867395 0.0 0.0 0.0 40.0" Properties=species:S:1:pos:R:3:tags:I:1:forces:R:3 stress="0.0026818572580473276 -8.96090929633179e-06 1.714650955457109e-06 -8.96090929633179e-06 0.00267081968825872 -1.4795906413566992e-06 1.714650955457109e-06 -1.4795906413566992e-06 0.0028886831943973346" energy=-1208.2713698601397 pbc="T T F"
C       -0.38604283       0.11556259       9.99155457        2       0.00075965      -0.00019436      -0.00009212
Ti      -0.38101334       1.86693831       8.70429672        0      -0.00331001      -0.00047699       0.00738274
Ti       1.15660093       0.97821761      11.26419559        0      -0.00332914       0.00267914       0.00102975
O       -0.29751993       1.81653713      12.23008024        3       0.00062899       0.00228864      -0.66558622
O        1.13059487       0.99400481       7.76504917        1      -0.00018218      -0.00220465       0.00304666
C       -1.89885755       2.74284995      10.02386629        2       0.00075123       0.00226959       0.00079378
Ti      -1.90194672       4.49307447       8.71475622        0      -0.00020571      -0.00140026       0.00211558
Ti      -0.37147072       3.65057175      11.23102872        0       0.00130035      -0.00202327       0.00107006
O       -1.88962900       4.58304871      12.23008024        3       0.00053409       0.00689829      -0.99481583
O       -0.38760734       3.61646663       7.76609079        1      -0.00154298      -0.00318282      -0.00154440
C       -3.41247735       5.36275420      10.00698062        2       0.00112159      -0.00051755       0.00260415
Ti      -3.41172327       7.11524065       8.70684791        0       0.00085943       0.00204428       0.00496912
Ti      -1.90117939       6.25453166      11.29536507        0       0.00347927      -0.00229388       0.00097724
O       -3.41769452       7.12461669      12.23008024        3      -0.00215864       0.00113468      -0.26161179
O       -1.89636823       6.23726866       7.77134084        1      -0.00153482      -0.00112963      -0.00032582
C       -4.92646055       7.98924710       9.99701333        2      -0.00222629       0.00421202       0.00580841
Ti      -4.92749924       9.73664261       8.70183059        0      -0.00085057       0.00023319       0.00111957
Ti      -3.41260782       8.86573062      11.28820648        0       0.00208201      -0.00003742      -0.00158147
O       -4.92545818       9.73256743      12.23008024        3      -0.00335842      -0.00143031      -0.33237568
O       -3.41310254       8.86004904       7.76274497        1      -0.00169057       0.00431221       0.00122118
C        2.65294890       0.11446379       9.99026367        2       0.00376644       0.00013448      -0.00045068
Ti       2.64990158       1.86802943       8.70273889        0       0.00088712       0.00465718      -0.00173269
Ti       4.16265609       0.99252313      11.28866327        0      -0.00467957      -0.00204967      -0.00184410
O        2.65392550       1.86870069      12.23008024        3       0.00243155       0.00141090      -0.32933854
O        4.16587196       0.99546595       7.76325202        1       0.00067383       0.00064110       0.00259816
C        1.13200815       2.74608521       9.99223263        2       0.00437395       0.00167440      -0.00044493
Ti       1.13683464       4.49123100       8.69753692        0       0.00001455       0.00038379      -0.00058804
Ti       2.64760587       3.61712490      11.29866574        0       0.00245869       0.00156350      -0.00007493
O        1.13603751       4.49096559      12.23008024        3       0.00173438       0.00109591      -0.28544564
O        2.64975027       3.61758566       7.76494851        1       0.00095844       0.00203860      -0.00037917
C       -0.37750879       5.36525509       9.99793526        2       0.00086319      -0.00207522      -0.00169937
Ti      -0.38085741       7.11593567       8.70726732        0      -0.00050269      -0.00224869      -0.00089259
Ti       1.13757643       6.24227327      11.29624777        0       0.00127491      -0.00099273      -0.00190604
O       -0.37497068       7.12379783      12.23008024        3       0.00539690      -0.00073078      -0.28643110
O        1.13324096       6.24147284       7.76609440        1       0.00312533      -0.00336531      -0.00010722
C       -1.89628184       7.99845014       9.99123757        2       0.00276495      -0.00131717       0.00050883
Ti      -1.89582632       9.73816839       8.69974317        0       0.00362362      -0.00044863      -0.00056211
Ti      -0.38299224       8.86574348      11.28670669        0      -0.00384321      -0.00068349       0.00369433
O       -1.89760656       9.73945236      12.23008024        3       0.00076237       0.00115909      -0.32800706
O       -0.37841092       8.86286073       7.76293013        1      -0.00254319       0.00038294      -0.00113214
C        5.67202431       0.11277301       9.99182592        2      -0.00655679      -0.00045585      -0.00147748
Ti       5.67786784       1.86616924       8.70792856        0       0.00153501       0.00065690       0.00114555
Ti       7.18081157       0.98882071      11.29581865        0      -0.00398770      -0.00101632       0.00004296
O        5.66781343       1.86706441      12.23008024        3      -0.00234864      -0.00115315      -0.25632000
O        7.19629910       0.99398281       7.77175700        1      -0.00149695      -0.00110725       0.00079024
C        4.16368392       2.74095379       9.99798059        2      -0.00371974       0.00273201       0.00147829
Ti       4.16603450       4.49037741       8.70844437        0      -0.00111416      -0.00049820       0.00165040
Ti       5.67868750       3.61582294      11.28910412        0      -0.00024582       0.00064119      -0.00371037
O        4.16259904       4.49224745      12.23008024        3      -0.00043957      -0.00207478      -0.28203812
O        5.68200184       3.61686789       7.77145514        1      -0.00065816       0.00006504       0.00007079
C        2.64978799       5.36663577       9.99852475        2      -0.00016165      -0.00476099       0.00091262
Ti       2.64944884       7.11457661       8.70776344        0      -0.00025242      -0.00175044       0.00315117
Ti       4.16584236       6.23812974      11.28642089        0       0.00193634       0.00038525      -0.00043386
O        2.65142510       7.11254489      12.23008024        3       0.00072810       0.00192178      -0.25696094
O        4.16498317       6.23897992       7.76853462        1      -0.00126379       0.00042448      -0.00206868
C        1.13350878       7.98969342       9.99751691        2       0.00222569      -0.00331544       0.00156682
Ti       1.13329381       9.73827990       8.70751868        0       0.00053453      -0.00002962      -0.00336519
Ti       2.64942395       8.85869493      11.29596476        0      -0.00056473       0.00162326      -0.00019682
O        1.13030292       9.72797849      12.23008024        3      -0.00268523       0.00187445      -0.28437951
O        2.64747826       8.86385165       7.76579418        1       0.00268733      -0.00046460       0.00163152
C        8.71143845       0.11371804       9.99800960        2      -0.00207376       0.00126890      -0.00464370
Ti       8.70416211       1.87077024       8.71516251        0       0.00035521      -0.00050662      -0.00007513
Ti      10.19977709       0.96509625      11.23101796        0      -0.00017745       0.00253988       0.00028521
O        8.63456096       1.81452110      12.23008024        3      -0.00447230      -0.00072248      -0.97822139
O       10.22045897       0.99798292       7.76607633        1       0.00075842      -0.00150246      -0.00130472
C        7.19604486       2.74341300      10.00774322        2      -0.00185454       0.00223838      -0.00062773
Ti       7.19498583       4.48975824       8.71937303        0       0.00139184      -0.00005311       0.00128204
Ti       8.72317924       3.60806391      11.33888889        0      -0.00026420      -0.00130529       0.00427970
O        7.19361517       4.49112858      12.23008024        3      -0.00151397      -0.00064623      -0.17286322
O        8.71132195       3.61447807       7.77622164        1       0.00235807      -0.00063860      -0.00150270
C        5.68001214       5.36439089      10.00241456        2       0.00286034      -0.00168827      -0.00603277
Ti       5.67990193       7.11276035       8.70807961        0      -0.00102893      -0.00142932       0.00059433
Ti       7.19363715       6.24055050      11.28845825        0      -0.00108284      -0.00216248      -0.00227228
O        5.67626564       7.11460326      12.23008024        3       0.00487949       0.00019122      -0.28425984
O        7.19444928       6.23653626       7.77070754        1      -0.00156087      -0.00165634       0.00172711
C        4.16342715       7.98753386       9.99812839        2      -0.00011017       0.00058605       0.00195454
Ti       4.16487733       9.73636584       8.69707112        0      -0.00023857      -0.00163703      -0.00068886
Ti       5.67716267       8.86303348      11.29794892        0      -0.00047993       0.00257238       0.00191264
O        4.16498489       9.73528874      12.23008024        3       0.00071517       0.00307204      -0.28917908
O        5.67737379       8.86205367       7.76414731        1       0.00211859      -0.00019253      -0.00026593
C        0.62858653      -0.11052026      15.39240815       10      -0.00354500      -0.00111245       0.07133385
C        1.83766709       0.59187493      15.40079638       10      -0.00379053      -0.00137518       0.08807996
C       -0.56202033       1.97721459      15.36803748       10       0.00164355      -0.00080832       0.96444191
C        0.62399569       2.68963469      15.37567622       10      -0.00104462       0.00104304       0.16488512
C       -1.79979678       4.12609107      15.36803193       10      -0.00140123      -0.00071341       0.81060449
C       -0.59020894       4.79740014      15.37567366       10      -0.00200319       0.00140243       0.13643143
C       -3.01443653       6.20029172      15.39240760       10      -0.00175340      -0.00083030       0.06519132
C       -1.80172476       6.89588545      15.40079618       10       0.00314612      -0.00194895       0.09072924
C       -4.22594955       8.29092638      15.39051521       10       0.00485054      -0.00044038       0.10007576
C       -3.01388145       8.99080444      15.40180487       10       0.00235694       0.00259954       0.06390404
C        3.04818025      -0.10720260      15.40282989       10      -0.00026951       0.00137663       0.10107559
C        4.25819551       0.59346639      15.40180478       10      -0.00167608       0.00241953       0.06364904
C        1.84134167       1.99012168      15.39240836       10      -0.00132652      -0.00006141       0.07133350
C        3.04737603       2.69287183      15.38334823       10      -0.00011956      -0.00250968       0.07013245
C        0.62198483       4.09264358      15.34954834       10      -0.00026673      -0.00131258       0.26220834
C        1.83201456       4.79124105      15.36121829       10       0.00069866      -0.00265269       0.03960434
C       -0.58869603       6.20097082      15.39240760       10       0.00290429      -0.00091801       0.06631156
C        0.62251700       6.89353850      15.38334833       10       0.00335239      -0.00166912       0.07851093
C       -1.80215361       8.29325277      15.40283010       10      -0.00014185      -0.00090754       0.12027855
C       -0.59038886       8.99097705      15.40180487       10      -0.00294781       0.00263241       0.06888764
C        5.46817916      -0.10703935      15.40282989       10      -0.00027976       0.00252998       0.12119420
C        6.67853241       0.59136399      15.40079638       10       0.00266366       0.00122212       0.09050910
C        4.25835452       1.99312224      15.39051508       10      -0.00231707      -0.00102831       0.10033881
C        5.46900047       2.69250065      15.38334823       10      -0.00123954      -0.00116777       0.08633958
C        3.04620347       4.09239187      15.36946473       10       0.00174419      -0.00246003       0.04603077
C        4.25863122       4.79140615      15.36667687       10       0.00028150       0.00295246       0.11990845
C        1.83384089       6.19211096      15.36946463       10       0.00386803      -0.00383297       0.04601879
C        3.04592668       6.89142432      15.36667676       10      -0.00012608       0.00310993       0.11344753
C        0.62148890       8.29147190      15.39051521       10      -0.00455660       0.00038982       0.10408788
C        1.83274359       8.98942057      15.38334808       10      -0.00039078      -0.00378022       0.07881743
C        7.88696236      -0.11156389      15.39240815       10       0.00047710      -0.00442117       0.06636723
C        9.10170857       0.59148452      15.37567603       10      -0.00283908       0.00211747       0.13623848
C        6.67448461       1.98948309      15.39240836       10       0.00184780      -0.00195067       0.06541430
C        7.89089159       2.68912340      15.37567622       10       0.00051407       0.00052906       0.10006381
C        5.47079404       4.09199717      15.36946473       10      -0.00111381       0.00060033       0.03952640
C        6.68445371       4.79097318      15.36121829       10      -0.00046210      -0.00255680       0.03689501
C        4.25868230       6.19126072      15.36359887       10      -0.00181192       0.00321739       0.02740985
C        5.47097700       6.89129056      15.36667676       10      -0.00187942       0.00236590       0.12035794
C        3.04571363       8.29081725      15.36946446       10       0.00224143       0.00209086       0.04558262
C        4.25790611       8.99291504      15.36121788       10       0.00409278       0.00240023       0.03995697
C       10.31813868      -0.10603160      15.34954829       10      -0.00337835       0.00201379       0.26141227
C       11.53411683       0.59387204      15.37567603       10      -0.00271924      -0.00010319       0.16533760
C        9.07809708       1.97472519      15.36803748       10       0.00240034      -0.00077522       0.81029968
C       10.31927795       2.69234960      15.12367822       10       0.00104704       0.00081274      -0.65349206
C        7.89421827       4.09248819      15.34954834       10       0.00025075      -0.00068399       0.25959745
C        9.10790665       4.79701350      15.37567366       10      -0.00028960      -0.00043304       0.10037234
C        6.68288247       6.19148000      15.36946463       10      -0.00197345      -0.00133605       0.03914292
C        7.89395011       6.89276591      15.38334833       10      -0.00044363       0.00217604       0.08677133
C        5.47014677       8.29084628      15.36946446       10       0.00430215       0.00036324       0.04529222
C        6.68265095       8.98981769      15.38334808       10       0.00492635       0.00053308       0.07057586
O       10.25459896       2.72926868      13.69721062       11      -0.00816649      -0.00208161       0.00052104
H       11.05854253       2.25952465      13.24663452       12       0.00526318      -0.00146382       0.00043764
