131
Lattice="12.12 0.0 0.0 -6.06 10.496227893867395 0.0 0.0 0.0 40.0" Properties=species:S:1:pos:R:3:tags:I:1:forces:R:3 stress="0.0028449620545319037 5.14295408216118e-08 -7.755612175499027e-07 5.14295408216118e-08 0.002843795923760698 -2.026872956550773e-06 -7.755612175499027e-07 -2.026872956550773e-06 0.0028068104904593843" energy=-1205.732528247736 pbc="T T F"
C        0.24821409      -0.10590986       9.99379977        2       0.00018998      -0.00101595       0.00061031
Ti       0.25254326       1.63804541       8.70473243        0       0.00081808      -0.00251944       0.00127010
Ti       1.78290829       0.78617524      11.25991828        0       0.00010671       0.00016826       0.00034879
O        0.23710066       1.65285446      12.23008024        3      -0.00004145       0.00027290      -0.25020107
O        1.77427391       0.75662379       7.78520822        1      -0.00028159      -0.00316390       0.00002878
C       -1.26314074       2.51406293       9.99668793        2      -0.00203655      -0.00099619       0.00044652
Ti      -1.26427140       4.26569295       8.70465708        0      -0.00183565       0.00016097       0.00267105
Ti       0.24546184       3.38440110      11.31606100        0      -0.00080501       0.00203813      -0.00098977
O       -1.25871742       4.24296885      12.23008024        3       0.00083341       0.00280238      -0.24955940
O        0.25208340       3.38945111       7.76912821        1      -0.00157564      -0.00302430       0.00288705
C       -2.77646245       5.13290480       9.99355179        2      -0.00108086       0.00136054       0.00498218
Ti      -2.77622686       6.90200038       8.77905783        0      -0.00191934      -0.00203229       0.00126937
Ti      -1.23657762       6.01501437      11.26027261        0       0.00161311       0.00379602      -0.00023344
O       -2.77653264       6.73686167      12.23008024        3      -0.00120504      -0.00340943       0.16779208
O       -1.26672676       6.02428694       7.78594153        1      -0.00101203      -0.00102347      -0.00205834
C       -4.30859948       7.75328319      10.04487780        2      -0.00106628      -0.00004544      -0.00198341
Ti      -4.28040386       9.50675846       8.77877907        0       0.00053630      -0.00222408       0.00081827
Ti      -2.77705193       8.63673293      12.04394922        0       0.00042953       0.00202345      -0.00470867
O       -4.42181225       9.58773260      12.23008024        3      -0.00336360       0.00135385       0.16584872
O       -2.77688010       8.63808706       7.84104450        1       0.00106550      -0.00091386       0.00103465
C        3.28322866      -0.08848930      10.04316799        2      -0.00003727      -0.00171215       0.00267148
Ti       3.28352366       1.64829267       8.68660741        0      -0.00171908      -0.00076585      -0.00028511
Ti       4.78331514       0.78597438      11.25937509        0       0.00133645      -0.00066519       0.00436467
O        3.28320765       1.65626887      12.23008024        3       0.00069740       0.00067978      -0.20941061
O        4.79243635       0.75609854       7.78492489        1      -0.00002337       0.00081132       0.00095884
C        1.76578021       2.52449434       9.99406557        2       0.00156185       0.00096660      -0.00065656
Ti       1.76504310       4.26289430       8.71261153        0       0.00004035      -0.00128064       0.00337306
Ti       3.28326530       3.39520845      11.30015886        0       0.00008343       0.00090112       0.00045994
O        1.76875489       4.26401054      12.23008024        3       0.00192922       0.00266400      -0.17729951
O        3.28391834       3.38756495       7.76696192        1      -0.00268264      -0.00036314       0.00127629
C        0.26038952       5.13195426       9.99439670        2       0.00030975       0.00092811       0.00026095
Ti       0.25995734       6.88524768       8.68834168        0       0.00132127      -0.00324322      -0.00659286
Ti       1.77334162       6.01010347      11.30074348        0       0.00039667       0.00136430      -0.00162798
O        0.26729324       6.87973408      12.23008024        3       0.00033433       0.00151905      -0.20406859
O        1.76633377       6.01591864       7.76761642        1      -0.00087153      -0.00314398       0.00047420
C       -1.24442252       7.75305313      10.04429477        2       0.00016531      -0.00015711      -0.00046193
Ti      -1.27286282       9.50637734       8.77805116        0       0.00037666      -0.00000066       0.00337525
Ti       0.26350255       8.61447984      11.26036559        0       0.00049440      -0.00096745       0.00008777
O       -1.13227498       9.58730203      12.23008024        3       0.00640395       0.00369685       0.16150451
O        0.24199714       8.63750587       7.78579572        1       0.00041942       0.00008398      -0.00204249
C        6.31827044      -0.10619798       9.99345608        2      -0.00087003      -0.00025778       0.00489716
Ti       6.31410140       1.63779670       8.70482281        0      -0.00071153      -0.00268805       0.00065224
Ti       7.82566280       0.76362155      11.31295682        0       0.00007321       0.00080844       0.00193030
O        6.32919326       1.65249967      12.23008024        3       0.00111398       0.00163507      -0.25046417
O        7.82823189       0.76566704       7.76936964        1       0.00321276       0.00127252       0.00222987
C        4.80104677       2.52442478       9.99411932        2      -0.00283910      -0.00131176      -0.00074367
Ti       4.80244767       4.26271282       8.71291442        0      -0.00163663      -0.00029058       0.00256751
Ti       6.32124540       3.38426740      11.31621711        0      -0.00073826       0.00211284       0.00042037
O        4.79789798       4.26391020      12.23008024        3      -0.00264012       0.00280573      -0.17626867
O        6.31511354       3.38920355       7.76962128        1       0.00105055      -0.00109202      -0.00002880
C        3.28348469       5.13900803       9.99729982        2       0.00001534      -0.00026494       0.00180265
Ti       3.28364971       6.89305045       8.71314508        0       0.00000432      -0.00208049       0.00253698
Ti       4.79286076       6.00986341      11.30075499        0       0.00184394       0.00239681      -0.00119874
O        3.28334430       6.88736869      12.23008024        3      -0.00104603      -0.00074159      -0.17378529
O        4.80160019       6.01577824       7.76804185        1      -0.00464897      -0.00163279      -0.00202098
C        1.77775933       7.76061095       9.99475973        2      -0.00027037      -0.00076449      -0.00094074
Ti       1.76632988       9.51474195       8.70503627        0      -0.00264190       0.00026344       0.00175752
Ti       3.28319713       8.64631041      11.31633190        0      -0.00050875       0.00171430      -0.00088989
O        1.78715066       9.51987911      12.23008024        3       0.00181493      -0.00095597      -0.24773092
O        3.28339459       8.63969077       7.76977999        1       0.00147376       0.00130983       0.00113090
C        9.34325386      -0.10747302       9.99693316        2      -0.00016311       0.00263894       0.00007828
Ti       9.34303026       1.64074791       8.71627691        0       0.00333334      -0.00165219       0.00192533
Ti      10.86063040       0.76367792      11.31271731        0       0.00039170       0.00141435       0.00278769
O        9.34315616       1.63973582      12.23008024        3       0.00005422       0.00124641      -0.15024202
O       10.85803086       0.76601758       7.76945950        1       0.00016913      -0.00114172       0.00248912
C        7.82968748       2.51400731       9.99678324        2       0.00335695      -0.00151236       0.00055597
Ti       7.83157497       4.26586529       8.70508469        0      -0.00045041      -0.00077773       0.00037557
Ti       9.34313768       3.39153147      11.31304853        0       0.00166040       0.00263330       0.00057435
O        7.82511560       4.24303052      12.23008024        3       0.00175779       0.00190295      -0.24814290
O        9.34344591       3.39006670       7.76936198        1      -0.00050356      -0.00374385       0.00223588
C        6.30668970       5.13178128       9.99482163        2      -0.00140962       0.00364086      -0.00347994
Ti       6.30731694       6.88529731       8.68833686        0      -0.00093208      -0.00076055      -0.00402856
Ti       7.80289758       6.01533998      11.26004529        0       0.00209635       0.00085486       0.00287814
O        6.29930392       6.87976939      12.23008024        3      -0.00059362       0.00078192      -0.20152739
O        7.83400678       6.02448876       7.78618200        1      -0.00163289      -0.00246690      -0.00242865
C        4.78897707       7.76078970       9.99507649        2       0.00001371      -0.00270741      -0.00394464
Ti       4.80066689       9.51510881       8.70537507        0       0.00017268      -0.00161296       0.00002799
Ti       6.30268542       8.61411258      11.26076639        0      -0.00002725       0.00294454      -0.00127899
O        4.77886634       9.51976038      12.23008024        3       0.00103170       0.00125508      -0.24632404
O        6.32473354       8.63759439       7.78622011        1       0.00029018       0.00033228      -0.00233008
C       -0.35519259       0.24041471      15.85406157       10      -0.00284942       0.00243965       0.08120696
C        0.85555561       0.93931784      15.83876952       10       0.00384853       0.00207698       0.09294471
C       -1.56543085       2.33946991      15.85938227       10      -0.00148066       0.00021690       0.02883450
C       -0.35346716       3.03924117      15.84167184       10       0.00104709      -0.00567111       0.07605251
C       -2.77813515       4.43700265      15.85406157       10       0.00591366       0.00082009       0.08112738
C       -1.56738625       5.13616000      15.83876952       10       0.00109074      -0.00238854       0.09320271
C       -3.98484910       6.54089040      15.79095082       10       0.00246363      -0.00221688       0.10900959
C       -2.77792024       7.22715378      15.74912860       10      -0.00479675      -0.00054569      -0.59333866
C       -5.19648336       8.63953519      15.79095082       10      -0.00272954       0.00114393       0.10893489
C       -3.99869723       9.34151792      15.74912860       10      -0.00201338       0.00209657      -0.59663541
C        2.07025193       0.23360145      15.79095082       10      -0.00066280       0.00260098       0.10899216
C        3.28193625       0.93930231      15.75887214       10       0.00056466       0.00711351       0.24313724
C        0.85828695       2.33765683      15.82772655       10      -0.00502147       0.00159924       0.02888604
C        2.06984594       3.03762908      15.80581214       10       0.00156544       0.00035762       0.03170085
C       -0.35504097       4.43931423      15.82772655       10      -0.00287783       0.00005440       0.02888711
C        0.85689896       5.13863346      15.80581214       10       0.00394256      -0.00431757       0.03183072
C       -1.57114144       6.54091766      15.79095082       10       0.00192775      -0.00271947       0.10917218
C       -0.35421526       7.23750836      15.75887214       10       0.00557309      -0.00180465       0.24310443
C       -2.77783465       8.63678334      15.29632294       10      -0.00058012      -0.00056665       0.72127858
C       -1.55712921       9.34170922      15.74912860       10      -0.00089811       0.00193956      -0.59327937
C        4.49371002       0.23378583      15.79095082       10       0.00160838      -0.00034708       0.10906784
C        5.70838306       0.93945816      15.83876952       10      -0.00131757       0.00285459       0.09308440
C        3.28194545       2.33559480      15.79120585       10      -0.00071135       0.00229607       0.00455877
C        4.49402625       3.03763774      15.80581214       10      -0.00029487       0.00230636       0.03182558
C        2.06935836       4.43790430      15.80313053       10      -0.00558279       0.00268543       0.06136643
C        3.28194535       5.13807716      15.79812976       10       0.00143545      -0.00122961       0.04539145
C        0.85497079       6.53931477      15.79120585       10      -0.00037029      -0.00090181       0.00443714
C        2.06888932       7.23797818      15.80581214       10       0.00784617       0.00107281       0.03196370
C       -0.35940407       8.63976010      15.79095082       10       0.00206848      -0.00435188       0.10902660
C        0.85903616       9.33880293      15.83876952       10       0.00322271      -0.00059878       0.09324055
C        6.91922682       0.24063606      15.85406157       10      -0.00088828      -0.00278777       0.08111882
C        8.13081057       0.94006341      15.86100009       10       0.00045908      -0.00005803       0.07286198
C        5.70562558       2.33776568      15.82772655       10       0.00322020      -0.00082493       0.02887218
C        6.91735713       3.03923852      15.84167184       10      -0.00011826      -0.00124417       0.07611473
C        4.49461189       4.43792805      15.80313053       10      -0.00146284       0.00119445       0.06126061
C        5.70695922       5.13864379      15.80581214       10      -0.00124703      -0.00225083       0.03173538
C        3.28193353       6.53832489      15.80313053       10      -0.00307743       0.00024215       0.06132934
C        4.49488014       7.23792865      15.80581214       10       0.00160578       0.00082799       0.03163288
C        2.06864148       8.63724819      15.82772655       10      -0.00110524       0.00003268       0.02882376
C        3.28197782       9.33581601      15.84167184       10       0.00406067       0.00292376       0.07614836
C        9.34205923       0.23906104      15.85938227       10      -0.00337917       0.00437206       0.02882071
C       10.55321515       0.94005165      15.86100009       10       0.00218814      -0.00288720       0.07282709
C        8.12931230       2.33947957      15.85938227       10       0.00450744       0.00017361       0.02884396
C        9.34195058       3.03803165      15.86100009       10      -0.00123393      -0.00349745       0.07286382
C        6.91887151       4.43936123      15.82772655       10       0.00584654      -0.00270839       0.02895385
C        8.13127143       5.13613995      15.83876952       10      -0.00453361      -0.00010413       0.09301163
C        5.70893687       6.53932871      15.79120585       10      -0.00203195      -0.00274462       0.00457745
C        6.91822613       7.23736343      15.75887214       10      -0.00739877      -0.00061001       0.24304522
C        4.49538561       8.63713953      15.82772655       10      -0.00523895       0.00296025       0.02888725
C        5.70498697       9.33859573      15.83876952       10       0.00054230      -0.00026897       0.09303399
O       -2.77705271       8.63642054      13.88569275       11      -0.00321893       0.00081241       0.00353562
