130
Lattice="12.12 0.0 0.0 -6.06 10.496227893867395 0.0 0.0 0.0 40.0" Properties=species:S:1:pos:R:3:tags:I:1:forces:R:3 energy=-1199.6662744430848 stress="0.002809499168578463 2.672255927916551e-08 -4.82640437305007e-09 2.672255927916551e-08 0.0028094708450813327 -4.407292415774977e-08 -4.82640437305007e-09 -4.407292415774977e-08 0.001990502905078475" pbc="T T F"
C       -0.00001502      -0.00001529      10.00078564        2       0.00006005       0.00001171      -0.00448806
Ti       0.00000886       1.74929517       8.68991970        0       0.00000254      -0.00002195      -0.00074830
Ti       1.51493546       0.87467953      11.31171171        0      -0.00000527       0.00000386      -0.00384399
O        0.00015100       1.74835763      12.23008024        3      -0.00006614      -0.00001384       0.17737899
O        1.51505592       0.87470618       7.76991571        1       0.00012093       0.00005450      -0.00493463
C       -1.51499431       2.62407797      10.00125246        2       0.00003110      -0.00005524      -0.00420061
Ti      -1.51495298       4.37339244       8.68988194        0       0.00003463       0.00002942      -0.00025163
Ti      -0.00001647       3.49842981      11.31179995        0      -0.00001153      -0.00015701      -0.00348821
O       -1.51471699       4.37297114      12.23008024        3      -0.00000370       0.00000503       0.13521567
O       -0.00000625       3.49881595       7.76995515        1      -0.00000444       0.00017497      -0.00460045
C       -3.02999003       5.24810696      10.00153497        2       0.00002900      -0.00001045      -0.00388462
Ti      -3.02998782       6.99754179       8.68988965        0       0.00007197       0.00002060      -0.00019424
Ti      -1.51501569       6.12274692      11.31184621        0      -0.00002160      -0.00002793      -0.00314943
O       -3.03010319       6.99781709      12.23008024        3      -0.00004288       0.00002500       0.13428736
O       -1.51498038       6.12281663       7.77005643        1       0.00006423       0.00005328      -0.00419197
C       -4.54497675       7.87218328      10.00133663        2      -0.00007776       0.00004977      -0.00415415
Ti      -4.54506703       9.62159772       8.68991202        0      -0.00003847       0.00001477      -0.00071521
Ti      -3.03027684       8.74699551      11.31181662        0      -0.00018082       0.00005748      -0.00340265
O       -4.54587876       9.62233364      12.23008024        3      -0.00001325      -0.00005163       0.17292826
O       -3.02994680       8.74681636       7.76996788        1       0.00014522      -0.00009855      -0.00452278
C        3.03002108      -0.00002412      10.00125332        2      -0.00014480       0.00005372      -0.00420081
Ti       3.02994720       1.74934741       8.68987343        0       0.00004096       0.00002877      -0.00050209
Ti       4.54491234       0.87473986      11.31181755        0      -0.00005133       0.00002869      -0.00332908
O        3.02905598       1.74892291      12.23008024        3       0.00011570       0.00001931       0.14967772
O        4.54504873       0.87468620       7.77000316        1       0.00011878      -0.00006277      -0.00438402
C        1.51499835       2.62409051      10.00119652        2      -0.00005302      -0.00012548      -0.00420001
Ti       1.51496011       4.37337566       8.68988855        0      -0.00002713       0.00001310      -0.00024204
Ti       3.03002332       3.49866809      11.31180879        0       0.00000722      -0.00003357      -0.00338607
O        1.51469786       4.37286500      12.23008024        3       0.00003474       0.00002630       0.13539117
O        3.03003449       3.49878605       7.77000226        1       0.00002121       0.00011864      -0.00441400
C       -0.00000671       5.24801958      10.00147181        2      -0.00000672      -0.00005678      -0.00391075
Ti       0.00000632       6.99749120       8.69001913        0       0.00002262       0.00002175       0.00017324
Ti       1.51503333       6.12269554      11.31185240        0       0.00004919      -0.00007813      -0.00319838
O        0.00009096       6.99761255      12.23008024        3       0.00005961      -0.00003025       0.12091531
O        1.51498911       6.12282125       7.77006500        1      -0.00004121       0.00004050      -0.00416733
C       -1.51510075       7.87220454      10.00147036        2       0.00000190       0.00000958      -0.00389847
Ti      -1.51505792       9.62153106       8.68990554        0      -0.00000529      -0.00004823      -0.00019263
Ti      -0.00003284       8.74695464      11.31183374        0      -0.00003400       0.00005849      -0.00315626
O       -1.51547408       9.62151242      12.23008024        3      -0.00007422       0.00002002       0.13295743
O        0.00000883       8.74683905       7.77007395        1       0.00000135      -0.00004370      -0.00414559
C        6.05998527       0.00005851      10.00153722        2      -0.00000203      -0.00006339      -0.00386162
Ti       6.05999857       1.74933399       8.68989557        0       0.00001332      -0.00003627      -0.00012361
Ti       7.57506960       0.87471676      11.31181005        0       0.00004608      -0.00001107      -0.00325926
O        6.05998944       1.74960212      12.23008024        3      -0.00001218      -0.00006668       0.13064371
O        7.57496251       0.87467662       7.77001835        1      -0.00009612      -0.00007399      -0.00431075
C        4.54489213       2.62398679      10.00144770        2       0.00001131       0.00000628      -0.00396166
Ti       4.54497697       4.37344080       8.68990963        0      -0.00000416       0.00003567      -0.00009051
Ti       6.05999391       3.49872660      11.31170725        0      -0.00004411      -0.00004522      -0.00334314
O        4.54524031       4.37329651      12.23008024        3      -0.00009250       0.00003040       0.12773747
O        6.05999753       3.49874475       7.77009330        1       0.00000190      -0.00002874      -0.00417969
C        3.03000599       5.24807702      10.00154873        2      -0.00001516       0.00000080      -0.00391686
Ti       3.02998160       6.99754055       8.68991227        0      -0.00008912       0.00003735      -0.00010433
Ti       4.54502400       6.12282420      11.31180687        0       0.00001036       0.00001379      -0.00331614
O        3.02999730       6.99777160      12.23008024        3       0.00000328       0.00001117       0.13294747
O        4.54497782       6.12277475       7.77003562        1      -0.00011544      -0.00001992      -0.00430010
C        1.51510080       7.87221208      10.00147009        2       0.00001856       0.00002936      -0.00392452
Ti       1.51504186       9.62151198       8.68992008        0       0.00000539      -0.00008339      -0.00010273
Ti       3.03029191       8.74702190      11.31183198        0       0.00019247       0.00007350      -0.00334825
O        1.51528592       9.62140623      12.23008024        3       0.00004526       0.00001794       0.13141353
O        3.02994596       8.74682301       7.76998731        1      -0.00011156      -0.00007332      -0.00443875
C        9.09000822      -0.00001046      10.00134908        2       0.00009838       0.00001889      -0.00413963
Ti       9.09004407       1.74935586       8.68986360        0      -0.00005659       0.00003188      -0.00043290
Ti      10.60505446       0.87473031      11.31173602        0       0.00003747       0.00002103      -0.00376709
O        9.09076828       1.74910820      12.23008024        3      -0.00000496       0.00000639       0.14315682
O       10.60493072       0.87470695       7.76991860        1      -0.00015829       0.00004647      -0.00484870
C        7.57508890       2.62398839      10.00142382        2      -0.00002760      -0.00000435      -0.00391259
Ti       7.57501401       4.37343804       8.68992077        0      -0.00001176       0.00001022      -0.00007066
Ti       9.08997296       3.49872499      11.31178564        0      -0.00003452      -0.00002067      -0.00332308
O        7.57472293       4.37329295      12.23008024        3       0.00002173      -0.00000010       0.12479382
O        9.08997352       3.49877923       7.77001303        1      -0.00003495       0.00010621      -0.00436557
C        6.05999088       5.24821469      10.00140737        2      -0.00002203      -0.00003971      -0.00396678
Ti       6.06000198       6.99751991       8.68987405        0      -0.00000398      -0.00008593      -0.00038673
Ti       7.57498612       6.12280317      11.31179292        0      -0.00001529      -0.00003894      -0.00333030
O        6.06006887       6.99809998      12.23008024        3       0.00007429      -0.00010257       0.13900313
O        7.57501671       6.12277189       7.77003064        1       0.00009791      -0.00005082      -0.00432027
C        4.54499084       7.87219159      10.00137270        2       0.00007883       0.00007553      -0.00406330
Ti       4.54508582       9.62159741       8.68990001        0       0.00004429       0.00002276      -0.00067535
Ti       6.06003860       8.74686793      11.31174854        0       0.00002167      -0.00004629      -0.00370134
O        4.54609188       9.62228641      12.23008024        3       0.00000669      -0.00000380       0.16729539
O        6.05999419       8.74677740       7.76993281        1      -0.00002642      -0.00018172      -0.00481774
C        0.04485323       0.06751995      17.73777255       10       0.00556445       0.00200595      -0.07639452
C        1.25683356       0.76719313      17.73777255       10       0.00004430       0.00017689      -0.07067240
C       -1.16693500       2.16664483      17.73777255       10       0.00010521       0.00043569      -0.04871609
C        0.04505223       2.86632712      17.73777255       10      -0.00077660       0.00132204      -0.03898365
C       -2.37896456       4.26602616      17.73777255       10       0.00080493      -0.00059072      -0.02687935
C       -1.16702393       4.96567042      17.73777255       10      -0.00040232       0.00033294      -0.02127864
C       -3.59102490       6.36536972      17.73777255       10       0.00125072      -0.00064229      -0.02512581
C       -2.37911645       7.06505273      17.73777255       10       0.00056828      -0.00098347      -0.02086143
C       -4.80304400       8.46465535      17.73777255       10       0.00337844      -0.00024766      -0.04488245
C       -3.59099342       9.16436233      17.73777255       10      -0.00368414      -0.00177401      -0.03452071
C        2.46875999       0.06752134      17.73777255       10       0.00243707       0.00162668      -0.05534936
C        3.68078353       0.76723204      17.73777255       10       0.00341840       0.00097824      -0.04714660
C        1.25699463       2.16657427      17.73777255       10       0.00012625       0.00197876      -0.05475234
C        2.46896685       2.86646932      17.73777255       10      -0.00017495       0.00060839      -0.05156559
C        0.04498886       4.26591272      17.73777255       10       0.00049818       0.00105281      -0.05888337
C        1.25699357       4.96569018      17.73777255       10       0.00049244       0.00032738      -0.02097171
C       -1.16706698       6.36526181      17.73777255       10       0.00158631       0.00070691      -0.05370598
C        0.04492580       7.06504918      17.73777255       10       0.00129878      -0.00067434      -0.01958682
C       -2.37896837       8.46452958      17.73777255       10      -0.00035776       0.00050290      -0.05811454
C       -1.16701249       9.16433977      17.73777255       10       0.00018109      -0.00015325      -0.02059121
C        4.89286209       0.06752689      17.73777255       10       0.00180103      -0.00016231      -0.03392371
C        6.10492056       0.76733739      17.73777255       10       0.00124595       0.00058838      -0.02786482
C        3.68092143       2.16669476      17.73777255       10      -0.00041370       0.00080238      -0.02218674
C        4.89307736       2.86653508      17.73777255       10      -0.00096734       0.00023597      -0.06108552
C        2.46896435       4.26601905      17.73777255       10       0.00017041       0.00003863      -0.03186160
C        3.68107033       4.96579054      17.73777255       10      -0.00016844      -0.00000973      -0.03185656
C        1.25694333       6.36531298      17.73777255       10       0.00097843      -0.00021875      -0.05962296
C        2.46904601       7.06508699      17.73777255       10       0.00042278      -0.00078643      -0.02041771
C        0.04508495       8.46456361      17.73777255       10      -0.00123345      -0.00056085      -0.06399373
C        1.25716980       9.16432412      17.73777255       10      -0.00178871       0.00018795      -0.02031061
C        7.31695806       0.06749864      17.73777255       10      -0.00017525       0.00017726      -0.03089734
C        8.52896734       0.76729962      17.73777255       10       0.00035262      -0.00047979      -0.04391538
C        6.10506161       2.16674355      17.73777255       10      -0.00128539       0.00070046      -0.01992471
C        7.31705230       2.86658199      17.73777255       10      -0.00157933      -0.00066839      -0.06286983
C        4.89300331       4.26606648      17.73777255       10      -0.00049147      -0.00030661      -0.01983198
C        6.10501052       4.96586141      17.73777255       10      -0.00049624      -0.00102900      -0.06574028
C        3.68094800       6.36537454      17.73777255       10       0.00018674      -0.00058382      -0.02700976
C        4.89298755       7.06518073      17.73777255       10      -0.00012209      -0.00196435      -0.04607587
C        2.46918357       8.46458259      17.73777255       10      -0.00341890      -0.00096871      -0.05849761
C        3.68125347       9.16442953      17.73777255       10      -0.00244648      -0.00162893      -0.02908575
C        9.74098432       0.06759177      17.73777255       10       0.00365946       0.00176774      -0.05189346
C       10.95306076       0.76722566      17.73777255       10      -0.00340392       0.00023851      -0.06665971
C        8.52912378       2.16673130      17.73777255       10      -0.00056621       0.00101379      -0.02150484
C        9.74109674       2.86648995      17.73777255       10      -0.00124855       0.00068269      -0.05367428
C        7.31701905       4.26609128      17.73777255       10       0.00041686      -0.00029136      -0.01971237
C        8.52896835       4.96578135      17.73777255       10      -0.00078923       0.00063579      -0.03690278
C        6.10495930       6.36547334      17.73777255       10       0.00077408      -0.00130566      -0.02104824
C        7.31698099       7.06512238      17.73777255       10      -0.00011464      -0.00043573      -0.05153223
C        4.89317341       8.46467652      17.73777255       10      -0.00005949      -0.00017999      -0.04735549
C        6.10516019       9.16443662      17.73777255       10      -0.00557839      -0.00202146      -0.06487561
