132
Lattice="12.12 0.0 0.0 -6.06 10.496227893867395 0.0 0.0 0.0 40.0" Properties=species:S:1:pos:R:3:tags:I:1:forces:R:3 stress="0.002825261845326825 2.3049212337251957e-06 -5.509322646304634e-07 2.3049212337251957e-06 0.002828773265007566 1.2658500389166496e-06 -5.509322646304634e-07 1.2658500389166496e-06 0.001907861468435471" energy=-1208.6396322404103 pbc="T T F"
C        0.00080025       0.00206475      10.00175670        2      -0.00024724      -0.00007198       0.00366460
Ti       0.00074117       1.75109989       8.71145610        0      -0.00010505      -0.00013349       0.00515411
Ti       1.51478820       0.87718163      11.29171759        0       0.00468535      -0.00288994      -0.00304119
O        0.00256577       1.75053531      12.23008024        3      -0.00097518       0.00035132       0.06117677
O        1.51496532       0.87685845       7.77158438        1       0.00116212      -0.00079692      -0.00162581
C       -1.51418644       2.62593892      10.00339186        2      -0.00083094      -0.00004210       0.00587502
Ti      -1.51444162       4.37562095       8.71070932        0      -0.00088992       0.00013420       0.00596480
Ti      -0.00167036       3.50069942      11.29630414        0       0.00046986      -0.00002874       0.00112833
O       -1.51493665       4.37641417      12.23008024        3       0.00213784      -0.00006469       0.03094238
O        0.00019972       3.50065818       7.77186665        1      -0.00083050      -0.00088857       0.00355335
C       -3.02979176       5.25067242      10.00157704        2       0.00036705      -0.00044500       0.00582399
Ti      -3.02980659       6.99966131       8.71029683        0       0.00109987      -0.00055197       0.00066218
Ti      -1.51505258       6.12486690      11.29090018        0      -0.00007926       0.00434987      -0.00094128
O       -3.03014961       6.99975030      12.23008024        3       0.00051894       0.00098363       0.05661855
O       -1.51449779       6.12434092       7.77127008        1      -0.00061130       0.00142022       0.00029496
C       -4.54465793       7.87427680      10.00105810        2       0.00085425       0.00069438       0.00095241
Ti      -4.54469578       9.62346077       8.71101243        0       0.00029423       0.00153049      -0.00309726
Ti      -3.02986712       8.74887522      11.29195547        0       0.00084124       0.00236914      -0.00493746
O       -4.54485029       9.62345433      12.23008024        3       0.00057260       0.00047820       0.08903388
O       -3.02991474       8.74890976       7.77067013        1       0.00079872      -0.00006469       0.00137700
C        3.03075748       0.00172306      10.00099872        2      -0.00117833       0.00101311       0.00161915
Ti       3.03034248       1.75128975       8.71085607        0      -0.00075650      -0.00068387      -0.00233278
Ti       4.54560488       0.87690131      11.29203652        0      -0.00191516      -0.00203562      -0.00536652
O        3.03072629       1.75171631      12.23008024        3      -0.00113708      -0.00057727       0.06576100
O        4.54518527       0.87683107       7.77081189        1       0.00100282      -0.00106432       0.00138559
C        1.51552645       2.62587559      10.00148969        2       0.00034419       0.00000381       0.00326367
Ti       1.51521788       4.37515781       8.71112436        0       0.00047678       0.00033093       0.00303836
Ti       3.03002983       3.50069133      11.29196002        0       0.00285357       0.00028175      -0.00382415
O        1.51704619       4.37620458      12.23008024        3       0.00029635       0.00023976       0.05504263
O        3.03016120       3.50070496       7.77145394        1       0.00068901       0.00095432      -0.00093774
C        0.00009440       5.24995996      10.00168932        2       0.00000162       0.00048194       0.00355622
Ti       0.00032276       6.99954789       8.71075520        0      -0.00115813      -0.00005422       0.00020371
Ti       1.51500545       6.12472274      11.29227203        0       0.00154676       0.00175721      -0.00372685
O        0.00048391       6.99968928      12.23008024        3       0.00041841       0.00186614       0.06621564
O        1.51525289       6.12464834       7.77177485        1       0.00060199       0.00022766      -0.00187844
C       -1.51480394       7.87462995      10.00069304        2      -0.00041757      -0.00058358       0.00209685
Ti      -1.51488137       9.62347530       8.71037752        0       0.00163863       0.00009098      -0.00129287
Ti       0.00048824       8.74888483      11.29167531        0      -0.00206183       0.00039995      -0.00238871
O       -1.51484735       9.62334623      12.23008024        3       0.00070273       0.00024697       0.06052323
O        0.00084704       8.74876555       7.77116430        1      -0.00189671       0.00137827       0.00112286
C        6.05972273       0.00169559      10.00116866        2      -0.00007330       0.00113375       0.00193547
Ti       6.06002000       1.75112073       8.71079125        0       0.00122663      -0.00034020      -0.00074039
Ti       7.57561116       0.87778566      11.29288279        0      -0.00198841      -0.00175683      -0.00270489
O        6.06004758       1.75221706      12.23008024        3       0.00023697      -0.00026596       0.06451871
O        7.57595752       0.87665583       7.77225535        1      -0.00221279      -0.00002151      -0.00178208
C        4.54520419       2.62591921      10.00107465        2      -0.00018259      -0.00093151       0.00103664
Ti       4.54540305       4.37524804       8.71094647        0      -0.00091658       0.00087991      -0.00070704
Ti       6.06076537       3.50058023      11.29169057        0      -0.00260609      -0.00037283      -0.00489580
O        4.54504880       4.37569602      12.23008024        3       0.00058321      -0.00110172       0.06270020
O        6.06034536       3.50066590       7.77161410        1       0.00030386       0.00094244      -0.00148364
C        3.03021711       5.25018851      10.00124114        2      -0.00025112      -0.00048690       0.00194828
Ti       3.03033602       6.99963652       8.71127788        0      -0.00003278      -0.00072585      -0.00102732
Ti       4.54539529       6.12485252      11.29216525        0      -0.00058502      -0.00006918      -0.00121613
O        3.03024102       6.99963062      12.23008024        3       0.00014612       0.00050146       0.06863233
O        4.54531376       6.12480580       7.77158455        1       0.00004159       0.00006597      -0.00058176
C        1.51528735       7.87424826      10.00145384        2      -0.00020436       0.00031279       0.00044226
Ti       1.51514678       9.62353679       8.71159604        0      -0.00011095       0.00096600      -0.00126896
Ti       3.03054526       8.74965541      11.29278782        0      -0.00127353      -0.00140022      -0.00435736
O        1.51488064       9.62252463      12.23008024        3      -0.00023048       0.00018802       0.05816087
O        3.03044091       8.74939968       7.77238092        1       0.00024798      -0.00119569      -0.00267517
C        9.09054257       0.00263002      10.00290809        2      -0.00063930      -0.00087010       0.00150011
Ti       9.09022901       1.75103607       8.71172639        0      -0.00030371       0.00072121       0.00438257
Ti      10.60460164       0.87903199      11.29835541        0      -0.00133219      -0.00033165      -0.00013636
O        9.08926768       1.75219233      12.23008024        3      -0.00031465      -0.00081926       0.04277453
O       10.60505027       0.87681033       7.77256689        1       0.00200488       0.00090938       0.00213702
C        7.57486766       2.62589401      10.00172269        2       0.00080719      -0.00002707       0.00334532
Ti       7.57522861       4.37536441       8.71115102        0       0.00108359      -0.00018266       0.00302553
Ti       9.09122228       3.50107383      11.29592191        0      -0.00014073      -0.00261067      -0.00016121
O        7.57466953       4.37559047      12.23008024        3      -0.00286390       0.00067357       0.06772165
O        9.09053424       3.50044748       7.77260421        1       0.00016662       0.00054909       0.00157138
C        6.06048222       5.25012211      10.00146862        2       0.00108398      -0.00037930       0.00124612
Ti       6.06044362       6.99945800       8.71094410        0      -0.00046331       0.00076341      -0.00072969
Ti       7.57562563       6.12484182      11.29189685        0      -0.00114385       0.00313144      -0.00535914
O        6.05989691       6.99988351      12.23008024        3       0.00113455      -0.00021654       0.06015204
O        7.57523383       6.12463747       7.77136654        1      -0.00060754      -0.00013454      -0.00049015
C        4.54527057       7.87435419      10.00141471        2       0.00040719       0.00061627       0.00146709
Ti       4.54555987       9.62382557       8.71170272        0       0.00000487       0.00013059       0.00219416
Ti       6.06015405       8.74939919      11.29196321        0       0.00190566      -0.00220981      -0.00396717
O        4.54599881       9.62203813      12.23008024        3       0.00023096      -0.00138330       0.07491805
O        6.06003802       8.74902940       7.77165479        1       0.00008927      -0.00015495      -0.00080691
C        0.06660626       0.05268040      17.85394661       10      -0.00240198      -0.00239396      -0.03167542
C        1.27586042       0.75423248      17.86233484       10       0.00282949       0.00054059      -0.00181680
C       -1.12893420       2.14297410      17.82957595       10       0.00265678      -0.00508317       0.50064093
C        0.06329642       2.85189404      17.83721468       10       0.00166242      -0.00032568       0.02477616
C       -2.36404119       4.27973658      17.82957040       10      -0.00098249      -0.00160171       0.27809207
C       -1.15244749       4.95706259      17.83721213       10      -0.00449430      -0.00004573       0.03928863
C       -3.57559700       6.36103359      17.85394606       10       0.00165584      -0.00156378       0.02349719
C       -2.36290064       7.05714431      17.86233465       10      -0.00011240       0.00032938       0.02459748
C       -4.78676023       8.45391683      17.85205368       10       0.00112348      -0.00232704      -0.00492441
C       -3.57500377       9.15318673      17.86334333       10       0.00149340       0.00206735      -0.01370625
C        2.48630996       0.05537548      17.86436835       10       0.00182497       0.00060106      -0.02180505
C        3.69676853       0.75578696      17.86334324       10      -0.00236172      -0.00006470      -0.02045959
C        1.27903761       2.15233546      17.85394683       10       0.00000941       0.00152839      -0.02644467
C        2.48626648       2.85491017      17.84488669       10       0.00014670      -0.00100246      -0.02807113
C        0.06060765       4.25426063      17.81108680       10      -0.00565244       0.00278634       0.13219041
C        1.27122337       4.95352070      17.82275676       10      -0.00054215      -0.00035576      -0.05249658
C       -1.15045605       6.35978423      17.85394606       10      -0.00172797       0.00080399       0.00183150
C        0.06139965       7.05494087      17.84488680       10       0.00441540      -0.00039831      -0.02165506
C       -2.36300733       8.45524171      17.86436856       10      -0.00037856      -0.00194269      -0.03383547
C       -1.15098862       9.15306826      17.86334333       10      -0.00217171      -0.00204598      -0.01227420
C        4.90720771       0.05531913      17.86436835       10       0.00215083       0.00192593      -0.01686989
C        6.11797021       0.75444163      17.86233484       10       0.00218093      -0.00226190       0.02141265
C        3.69661701       2.15487381      17.85205355       10       0.00187695       0.00001767       0.00044185
C        4.90726203       2.85495586      17.84488669       10      -0.00062172      -0.00071215      -0.03296124
C        2.48475513       4.25428627      17.83100320       10      -0.00166417      -0.00031709      -0.02996063
C        3.69648742       4.95438114      17.82821533       10      -0.00062846       0.00117178      -0.00137199
C        1.27289179       6.35430521      17.83100309       10      -0.00076271      -0.00111988      -0.04109770
C        2.48478968       7.05400521      17.82821523       10       0.00126742       0.00173812       0.00514981
C        0.06071291       8.45349454      17.85205368       10      -0.00404177       0.00140325      -0.01009520
C        1.27224704       9.15224195      17.84488655       10       0.00081677      -0.00417174      -0.02219575
C        7.32813677       0.05310137      17.85394661       10      -0.00050168       0.00150311       0.00880610
C        8.54185810       0.75625437      17.83721450       10       0.00053344       0.00051234       0.03353690
C        6.11455500       2.15269927      17.85394683       10       0.00016216      -0.00246392       0.02486135
C        7.32975780       2.85272296      17.83721468       10       0.00125988       0.00231117      -0.00299697
C        4.90847158       4.25449471      17.83100320       10       0.00008354      -0.00130313      -0.02175169
C        6.12201866       4.95393382      17.82275676       10       0.00038254       0.00129886      -0.05767542
C        3.69679285       6.35419055      17.82513734       10      -0.00142918       0.00006031      -0.03077376
C        4.90884821       7.05435755      17.82821523       10      -0.00029880       0.00194255      -0.00798440
C        2.48481866       8.45343819      17.83100292       10      -0.00174715       0.00295879      -0.04561398
C        3.69695414       9.15547141      17.82275635       10       0.00179551      -0.00347304      -0.05205172
C        9.75716838       0.05736377      17.81108676       10      -0.00390072      -0.00083374       0.13741817
C       10.97305059       0.75601814      17.83721450       10       0.00185941      -0.00369534       0.00834545
C        8.52270046       2.14406449      17.82957595       10      -0.00070081      -0.00028556       0.29097778
C        9.75478860       2.85642822      17.58521668       10       0.00146459      -0.00211337      -1.95122836
C        7.33270304       4.25499558      17.81108680       10      -0.00038435       0.00192163       0.15106014
C        8.54577548       4.95855142      17.83721213       10      -0.00183616      -0.00101087       0.01420173
C        6.12104764       6.35467368      17.83100309       10      -0.00094946       0.00052895      -0.02191366
C        7.33252437       7.05542682      17.84488680       10      -0.00178594       0.00269919      -0.02569824
C        4.90917247       8.45385631      17.83100292       10       0.00042823       0.00139955      -0.03718843
C        6.12175726       9.15214081      17.84488655       10       0.00642184       0.00126673      -0.03502748
O        9.82561753       2.81315719      16.00002535       11      -0.00524436       0.00538470       0.00051502
H        9.03835364       3.25699554      15.63916909       12       0.00430911      -0.00089335       0.00060049
