131
Lattice="12.12 0.0 0.0 -6.06 10.496227893867395 0.0 0.0 0.0 40.0" Properties=species:S:1:pos:R:3:tags:I:1:forces:R:3 stress="0.0028398660257915403 -5.1362128600316504e-08 -4.574252246811638e-06 -5.1362128600316504e-08 0.0028403352313162247 1.4883533148143615e-06 -4.574252246811638e-06 1.4883533148143615e-06 0.002074688408052625" energy=-1204.5662461161144 pbc="T T F"
C       -0.00102183       0.00041850      10.00193093        2       0.00014603      -0.00022756       0.00202885
Ti       0.00045688       1.74939322       8.68985745        0      -0.00073574       0.00004079      -0.00505576
Ti       1.51495659       0.87521892      11.31085849        0      -0.00068355       0.00050781       0.00452589
O       -0.00051677       1.74915619      12.23008024        3      -0.00046563      -0.00004737       0.10444415
O        1.51626001       0.87259494       7.77303235        1      -0.00052461       0.00003148       0.00093745
C       -1.51500167       2.62401468      10.00141206        2      -0.00031900       0.00041968       0.00138265
Ti      -1.51517836       4.37426484       8.69387263        0      -0.00026181      -0.00026916      -0.00467047
Ti      -0.00012705       3.49894752      11.31068850        0       0.00018235       0.00052396       0.00304844
O       -1.51479351       4.37153786      12.23008024        3      -0.00044352      -0.00016064       0.15449181
O       -0.00083897       3.49959168       7.77082040        1      -0.00061816       0.00007890       0.00048875
C       -3.03059934       5.24751847      10.00513789        2      -0.00045730       0.00095116       0.00313520
Ti      -3.03091793       6.99643958       8.70037387        0      -0.00059955       0.00013339      -0.00448505
Ti      -1.51644717       6.12616312      11.32248844        0      -0.00094367       0.00030853       0.00601115
O       -3.03430947       6.99493744      12.23008024        3      -0.00072041       0.00108557       0.07193747
O       -1.51564480       6.12587156       7.77855632        1      -0.00065563       0.00007050       0.00223183
C       -4.54604317       7.87187273      10.00818332        2      -0.00017566       0.00033605       0.00308849
Ti      -4.54509070       9.62149094       8.69759288        0      -0.00074506       0.00022139      -0.00475920
Ti      -3.03043716       8.74687860      11.33940450        0      -0.00113367       0.00049478       0.00512082
O       -4.54725403       9.62222162      12.23008024        3       0.00032074      -0.00006861       0.08156563
O       -3.02827046       8.74594032       7.78193957        1      -0.00047253       0.00007354       0.00194929
C        3.02968916       0.00050319      10.00879981        2      -0.00046764      -0.00025230       0.00297549
Ti       3.02969662       1.74860890       8.69520472        0      -0.00039079       0.00064545      -0.00505738
Ti       4.54311388       0.87715983      11.31622720        0      -0.00083747      -0.00011066       0.00548686
O        3.02847581       1.75232023      12.23008024        3      -0.00038267      -0.00045849       0.14298706
O        4.54450060       0.87198943       7.77539098        1      -0.00024767      -0.00020201       0.00148579
C        1.51454354       2.62370561      10.00148360        2      -0.00009324      -0.00037765       0.00211899
Ti       1.51454944       4.37345193       8.69074614        0      -0.00024655      -0.00014014      -0.00424415
Ti       3.02964079       3.49959889      11.31034311        0      -0.00024878       0.00024169       0.00262146
O        1.51499932       4.37189060      12.23008024        3      -0.00017720      -0.00009591       0.15022481
O        3.02972522       3.49737510       7.77103817        1      -0.00046979       0.00023890       0.00010260
C        0.00075155       5.24760626      10.00418915        2      -0.00055426       0.00085383       0.00277225
Ti       0.00087626       6.99692538       8.69972796        0       0.00013224      -0.00017632      -0.00455062
Ti       1.51660325       6.12170268      11.31028309        0      -0.00018252      -0.00004768       0.00352659
O        0.00138478       6.99605112      12.23008024        3      -0.00163564       0.00074047       0.15273232
O        1.51260031       6.12415778       7.77202783        1      -0.00064206       0.00023322       0.00112739
C       -1.51583699       7.87256595      10.01750148        2      -0.00098776       0.00050091       0.00425726
Ti      -1.51461910       9.62268472       8.70062668        0      -0.00061229       0.00022615      -0.00453009
Ti      -0.00352934       8.74600694      11.32327395        0      -0.00108609       0.00044117       0.00600452
O       -1.51503816       9.62605298      12.23008024        3      -0.00130594       0.00011750       0.06657244
O       -0.00298729       8.74595286       7.77884394        1      -0.00054015       0.00031220       0.00223696
C        6.06007720       0.00059363      10.00575357        2      -0.00117246      -0.00030897       0.00315954
Ti       6.05969952       1.74901991       8.69311480        0      -0.00014310       0.00026581      -0.00474592
Ti       7.57460705       0.87492463      11.31074010        0      -0.00100454       0.00031923       0.00366831
O        6.05987598       1.75039304      12.23008024        3      -0.00142266       0.00005160       0.14049751
O        7.57380451       0.87376679       7.77179388        1      -0.00037593      -0.00000218       0.00073615
C        4.54488724       2.62487268      10.00284330        2      -0.00068740      -0.00012901       0.00198470
Ti       4.54503686       4.37327943       8.68947804        0      -0.00037242       0.00023177      -0.00426153
Ti       6.05932438       3.49920302      11.31055880        0      -0.00148441       0.00061498       0.00255054
O        4.54352840       4.37362409      12.23008024        3      -0.00100699       0.00035609       0.14001264
O        6.06047902       3.49832211       7.77109765        1      -0.00006071      -0.00009305       0.00032859
C        3.02994745       5.24805376      10.00131163        2      -0.00061671       0.00021735       0.00175259
Ti       3.02974306       6.99786260       8.69076382        0      -0.00013378       0.00017982      -0.00413617
Ti       4.54372149       6.12224048      11.31057371        0      -0.00051187       0.00004565       0.00219433
O        3.03118055       6.99803159      12.23008024        3      -0.00027768       0.00001288       0.14224755
O        4.54586083       6.12358058       7.77099481        1      -0.00061728       0.00014745      -0.00004492
C        1.51570652       7.87163029      10.00451347        2      -0.00123742      -0.00011178       0.00274671
Ti       1.51412369       9.62133986       8.69420963        0      -0.00005596       0.00019464      -0.00458238
Ti       3.02934438       8.74685027      11.31079735        0      -0.00055881      -0.00069957       0.00297007
O        1.51622771       9.62253473      12.23008024        3      -0.00037973       0.00023938       0.15284352
O        3.02859578       8.74718437       7.77092750        1      -0.00055099       0.00039297       0.00044277
C        9.08985799       0.00012721      10.00144765        2      -0.00070138      -0.00017476       0.00157706
Ti       9.08973190       1.74940818       8.68980492        0      -0.00022223       0.00010651      -0.00535005
Ti      10.60525416       0.87448404      11.31117198        0      -0.00035680      -0.00005411       0.00269097
O        9.09099416       1.74888287      12.23008024        3      -0.00013695       0.00000157       0.14953997
O       10.60497554       0.87466946       7.76990589        1      -0.00050901       0.00017720      -0.00002256
C        7.57484492       2.62418969      10.00203885        2      -0.00094920       0.00035555       0.00204817
Ti       7.57524351       4.37376881       8.69248722        0      -0.00041716      -0.00018273      -0.00464071
Ti       9.08975850       3.49903736      11.31080713        0      -0.00106947       0.00039690       0.00344276
O        7.57463045       4.37309140      12.23008024        3      -0.00075917       0.00092779       0.13975545
O        9.09020147       3.49999280       7.77152855        1      -0.00024019       0.00019672       0.00066773
C        6.05930343       5.24782075      10.00280571        2      -0.00037785       0.00046423       0.00190850
Ti       6.06054706       6.99822772       8.69464139        0      -0.00090595      -0.00023481      -0.00479175
Ti       7.57101007       6.12303309      11.31473738        0      -0.00043451       0.00045118       0.00530232
O        6.05561612       6.99727767      12.23008024        3      -0.00007803       0.00048653       0.14457897
O        7.57697851       6.12449407       7.77470884        1      -0.00003862       0.00015789       0.00156414
C        4.54471625       7.87265289      10.00128483        2       0.00002524       0.00007798       0.00222895
Ti       4.54511958       9.62109905       8.68991565        0      -0.00057489       0.00044521      -0.00501006
Ti       6.05855616       8.74637382      11.31018484        0      -0.00073231       0.00011669       0.00480409
O        4.54452951       9.62212689      12.23008024        3      -0.00017970       0.00025983       0.12349533
O        6.06228973       8.74694003       7.77265893        1      -0.00046187       0.00020615       0.00104937
C        0.04145239       0.06990582      17.57713849       10      -0.00055872      -0.00086023      -0.04065644
C        1.25061175       0.77051668      17.56184644       10      -0.00082751      -0.00150161      -0.04237240
C       -1.16918680       2.16819765      17.58245919       10       0.00334874      -0.00336529      -0.04922091
C        0.04282019       2.86784950      17.56474876       10       0.00219576      -0.00375854      -0.05049875
C       -2.38051259       4.26488565      17.57713849       10       0.00091388      -0.00380018      -0.01669635
C       -1.16914367       4.96140773      17.56184644       10       0.00034695      -0.00272405      -0.00940061
C       -3.58567503       6.36706730      17.51402774       10      -0.00150789      -0.00211789       0.00535111
C       -2.37982629       7.04831384      17.47220552       10      -0.00228402      -0.00048317      -0.10011908
C       -4.80015137       8.47045905      17.51402774       10       0.00397148       0.00001011      -0.01256013
C       -3.60658068       9.17343636      17.47220552       10       0.00390565      -0.00009205      -0.13233671
C        2.46576893       0.06234452      17.51402774       10      -0.00130595       0.00036523      -0.01132226
C        3.68011179       0.76747420      17.48194906       10      -0.00243835       0.00000650      -0.07533781
C        1.25534037       2.16875536      17.55080347       10       0.00182068      -0.00255318      -0.04663736
C        2.46676246       2.86659269      17.52888906       10       0.00139260      -0.00174870      -0.03666653
C        0.04394413       4.26680486      17.55080347       10       0.00072551      -0.00359856      -0.03253551
C        1.25420334       4.96684725      17.52888906       10      -0.00065969      -0.00064700      -0.01805873
C       -1.17435239       6.36691425      17.51402774       10      -0.00271663      -0.00076642      -0.01082186
C        0.04329050       7.06638456      17.48194906       10      -0.00253397       0.00124690      -0.03590995
C       -2.37903233       8.46492797      17.01939986       10       0.00116592       0.00033586      -0.29587616
C       -1.15262978       9.17414995      17.47220552       10       0.00074002      -0.00030109      -0.09533183
C        4.89453584       0.06283536      17.51402774       10      -0.00177641       0.00139344       0.00264680
C        6.10910307       0.77036528      17.56184644       10       0.00028945      -0.00066943      -0.03881192
C        3.67993763       2.16400790      17.51428277       10       0.00134558      -0.00074765      -0.03937063
C        4.89255941       2.86631872      17.52888906       10       0.00251067      -0.00095720      -0.05232797
C        2.46810874       4.26719670      17.52620745       10      -0.00074687      -0.00136672      -0.04035824
C        3.67974314       4.96697287      17.52120668       10      -0.00138801       0.00005592      -0.06395220
C        1.25264881       6.36814547      17.51428277       10      -0.00223158       0.00147168      -0.05662471
C        2.46714593       7.06744199      17.52888906       10      -0.00034286       0.00139470      -0.01210569
C        0.04006214       8.47061767      17.51402774       10       0.00230201       0.00209897      -0.00591459
C        1.25990433       9.16888106      17.56184644       10       0.00553302       0.00050762       0.00098194
C        7.31756837       0.06994593      17.57713849       10       0.00299711       0.00228903      -0.02616189
C        8.52951574       0.76954577      17.58407701       10       0.00239978       0.00197475      -0.02892360
C        6.10395676       2.16843030      17.55080347       10       0.00363411      -0.00077527       0.00176543
C        7.31620800       2.86718427      17.56474876       10       0.00321369      -0.00007196      -0.05303693
C        4.89189541       4.26714261      17.52620745       10      -0.00117521       0.00034001      -0.00219678
C        6.10558354       4.96661046      17.52888906       10      -0.00211390       0.00198689      -0.05337944
C        3.68015473       6.36611128      17.52620745       10      -0.00167593       0.00044473      -0.04597012
C        4.89244801       7.06747246      17.52888906       10      -0.00127357       0.00085449      -0.03751417
C        2.46803425       8.46552262      17.55080347       10       0.00617048       0.00151912      -0.04075800
C        3.67899500       9.16582669      17.56474876       10       0.00600206       0.00069268      -0.04311894
C        9.73913648       0.06894638      17.58245919       10       0.00129456       0.00129253      -0.04157501
C       10.94891992       0.76990106      17.58407701       10       0.00121758      -0.00105599      -0.04883221
C        8.52753341       2.16776499      17.58245919       10       0.00354551       0.00030958      -0.01532278
C        9.73926556       2.86533951      17.58407701       10       0.00298214      -0.00210770      -0.02776063
C        7.31568663       4.26648528      17.55080347       10      -0.00207943       0.00020293       0.00570615
C        8.52885876       4.96137435      17.56184644       10      -0.00110771      -0.00171533      -0.04606215
C        6.10753627       6.36803966      17.51428277       10      -0.00200660       0.00207109      -0.02606851
C        7.31677680       7.06644971      17.48194906       10      -0.00117495       0.00074977      -0.07722057
C        4.89073228       8.46538925      17.55080347       10       0.00442785       0.00052638      -0.04128644
C        6.09899381       9.16876173      17.56184644       10       0.00524655      -0.00070925      -0.04004317
O       -2.36701504       8.46006866      15.69019376       11       0.00035994       0.00105240      -0.00086598
