131
Lattice="12.12 0.0 0.0 -6.06 10.496227893867395 0.0 0.0 0.0 40.0" Properties=species:S:1:pos:R:3:tags:I:1:forces:R:3 stress="0.0028835359262978037 2.5811755025139566e-07 6.363385219455069e-07 2.5811755025139566e-07 0.002883719250435419 3.458453548151567e-07 6.363385219455069e-07 3.458453548151567e-07 0.0017368704162950702" energy=-1203.666018014475 pbc="T T F"
C       -0.00002151       0.00006476      10.00129831        2       0.00014825      -0.00000183      -0.00042183
Ti       0.00017558       1.74934758       8.71059203        0       0.00015629       0.00010497      -0.00006588
Ti       1.51536880       0.87443960      11.29282211        0       0.00016744      -0.00032478       0.00009320
O       -0.00033955       1.74966247      12.23008024        3       0.00013853       0.00003352       0.01727860
O        1.51522086       0.87424583       7.77188862        1       0.00000266       0.00035699      -0.00024665
C       -1.51499214       2.62408262      10.00096615        2       0.00012202       0.00008213      -0.00008524
Ti      -1.51492999       4.37372725       8.71093472        0       0.00013688       0.00010885       0.00017464
Ti       0.00017515       3.49881536      11.29168053        0       0.00010076       0.00000237      -0.00005737
O       -1.51478133       4.37248280      12.23008024        3       0.00008607      -0.00002364       0.01582979
O       -0.00018336       3.49875018       7.77107810        1       0.00013606       0.00013171       0.00015637
C       -3.03002587       5.24808492      10.00163966        2       0.00001409       0.00012590      -0.00039829
Ti      -3.03007116       6.99762914       8.71251751        0       0.00007777       0.00004473      -0.00082024
Ti      -1.51498204       6.12371223      11.29451624        0      -0.00010904       0.00025453       0.00018877
O       -3.03015505       6.99619696      12.23008024        3      -0.00006226       0.00001648      -0.00058536
O       -1.51524666       6.12330225       7.77234143        1       0.00026774      -0.00021380      -0.00013922
C       -4.54512780       7.87209487      10.00269850        2       0.00010834       0.00006209      -0.00086710
Ti      -4.54475981       9.62142668       8.71223392        0       0.00004765       0.00003610      -0.00089597
Ti      -3.02925060       8.74672689      11.30108444        0       0.00018354      -0.00010843       0.00023421
O       -4.54666195       9.62257883      12.23008024        3      -0.00013609       0.00006783       0.00430711
O       -3.02981409       8.74682980       7.77358824        1       0.00005678       0.00003990      -0.00111705
C        3.03006631       0.00029264      10.00270451        2       0.00005260      -0.00009349      -0.00082846
Ti       3.03004657       1.74944662       8.71091324        0       0.00011058      -0.00016330       0.00022003
Ti       4.54490362       0.87439277      11.29289470        0       0.00001022      -0.00035709       0.00024902
O        3.02977956       1.75053336      12.23008024        3       0.00001631      -0.00003005       0.01066856
O        4.54490828       0.87418871       7.77201431        1       0.00016420       0.00037145      -0.00014534
C        1.51498714       2.62430415      10.00091410        2       0.00017901       0.00003956      -0.00009109
Ti       1.51499936       4.37348141       8.71035747        0       0.00013960       0.00010589      -0.00017582
Ti       3.03001174       3.49888547      11.29167052        0       0.00010152      -0.00004856       0.00001855
O        1.51504793       4.37330813      12.23008024        3       0.00008474      -0.00001387       0.01464549
O        3.03001558       3.49851824       7.77096629        1       0.00009199       0.00023377       0.00015356
C        0.00027170       5.24791936      10.00108942        2       0.00011951       0.00009349      -0.00008563
Ti       0.00015669       6.99747723       8.71128491        0      -0.00006677       0.00012123       0.00007372
Ti       1.51498223       6.12292277      11.29183326        0      -0.00010802       0.00011470       0.00023184
O        0.00115389       6.99689038      12.23008024        3       0.00004214       0.00004490       0.00460233
O        1.51470072       6.12302907       7.77113466        1       0.00027283      -0.00011904       0.00017404
C       -1.51480571       7.87219898      10.00333473        2      -0.00003243       0.00009593      -0.00095343
Ti      -1.51507870       9.62160090       8.71255751        0       0.00006371       0.00004843      -0.00096890
Ti      -0.00078364       8.74664542      11.29508897        0      -0.00029932      -0.00001145       0.00015749
O       -1.51383053       9.62255338      12.23008024        3       0.00002649      -0.00001485      -0.00532309
O       -0.00049198       8.74693187       7.77243432        1       0.00037280      -0.00003650      -0.00034924
C        6.06010649       0.00017018      10.00170701        2      -0.00000647      -0.00003240      -0.00046757
Ti       6.05987080       1.74938809       8.71067136        0      -0.00002729       0.00002601       0.00018310
Ti       7.57499304       0.87473549      11.29190460        0       0.00007834      -0.00002909      -0.00003995
O        6.06052164       1.74980059      12.23008024        3       0.00004763      -0.00003021       0.01769429
O        7.57488747       0.87458209       7.77129162        1       0.00010771       0.00012217      -0.00000910
C        4.54509177       2.62444054      10.00093912        2       0.00000131       0.00001767      -0.00002345
Ti       4.54501455       4.37344492       8.71031078        0       0.00003515       0.00011416      -0.00039662
Ti       6.06000271       3.49886829      11.29173162        0       0.00001581       0.00002001      -0.00007201
O        4.54501547       4.37349501      12.23008024        3       0.00006790       0.00000157       0.01510068
O        6.06020011       3.49867626       7.77102594        1      -0.00003151       0.00008738       0.00013693
C        3.03011609       5.24810517      10.00065336        2       0.00007871       0.00003905       0.00009141
Ti       3.03001089       6.99749329       8.71034393        0       0.00000400       0.00001355      -0.00011722
Ti       4.54499884       6.12278245      11.29163811        0       0.00001980      -0.00000298      -0.00000329
O        3.03023625       6.99755046      12.23008024        3       0.00001716       0.00010393       0.01471841
O        4.54525896       6.12296623       7.77098755        1      -0.00011254      -0.00009556       0.00010921
C        1.51540741       7.87212219      10.00116693        2       0.00001768      -0.00001409      -0.00019641
Ti       1.51484348       9.62137794       8.71109736        0       0.00008193      -0.00003747      -0.00013441
Ti       3.03015735       8.74673158      11.29166663        0       0.00001465       0.00007817      -0.00005100
O        1.51645483       9.62208138      12.23008024        3       0.00008790       0.00003235       0.01253718
O        3.02992407       8.74705741       7.77110759        1       0.00010497      -0.00004013       0.00007899
C        9.09004992       0.00006051      10.00096233        2       0.00006224       0.00000969      -0.00013944
Ti       9.08998938       1.74940738       8.71040822        0       0.00007078       0.00007327      -0.00032457
Ti      10.60510281       0.87467974      11.29194977        0       0.00012730       0.00005597      -0.00003872
O        9.09011556       1.74942646      12.23008024        3       0.00006575       0.00005225       0.01751929
O       10.60507832       0.87467127       7.77108553        1       0.00002992       0.00009298      -0.00003735
C        7.57505522       2.62411550      10.00099809        2       0.00000554       0.00008177      -0.00008699
Ti       7.57496385       4.37362277       8.71074715        0      -0.00000557       0.00014248      -0.00002631
Ti       9.09007080       3.49885704      11.29187282        0       0.00004267       0.00006515      -0.00003497
O        7.57500794       4.37293699      12.23008024        3      -0.00000826       0.00003750       0.01828030
O        9.09005346       3.49892962       7.77125676        1       0.00007744       0.00005100       0.00004539
C        6.05982042       5.24795323      10.00100052        2      -0.00003537       0.00009202      -0.00008188
Ti       6.06001867       6.99744422       8.71100016        0       0.00025077       0.00012955       0.00010763
Ti       7.57549073       6.12330350      11.29316283        0       0.00029699       0.00028462       0.00023062
O        6.05908217       6.99720842      12.23008024        3       0.00000100       0.00006900       0.01230795
O        7.57544154       6.12320664       7.77204477        1      -0.00016761      -0.00020991      -0.00023885
C        4.54489629       7.87211078      10.00091801        2       0.00007335      -0.00006401      -0.00008267
Ti       4.54513618       9.62143707       8.71052635        0       0.00008898      -0.00001354       0.00009486
Ti       6.06049205       8.74687445      11.29264969        0       0.00028759       0.00006837       0.00009202
O        4.54471560       9.62178777      12.23008024        3       0.00006497       0.00003030       0.01704302
O        6.06053494       8.74693523       7.77188009        1      -0.00023034      -0.00000187      -0.00025280
C        0.04110372       0.06992698      18.31560003       10       0.00464960       0.00023275       0.03027158
C        1.25160386       0.76952164      18.30030798       10       0.00026336      -0.00185546       0.04948322
C       -1.16860121       2.16795847      18.32092073       10      -0.00052952       0.00041679       0.00535937
C        0.04325148       2.86760636      18.30321030       10      -0.00055213       0.00078076       0.01914751
C       -2.38045079       4.26479309      18.31560003       10      -0.00322450       0.00034247       0.03057933
C       -1.16938433       4.96330045      18.30030798       10      -0.00119255       0.00070695       0.04910827
C       -3.58752526       6.36738620      18.25248928       10      -0.00256011       0.00041884       0.00229859
C       -2.38051007       7.04855709      18.21066706       10       0.00008450      -0.00029244      -0.40945322
C       -4.80149297       8.46957191      18.25248928       10       0.00290148      -0.00079755       0.00231925
C       -3.60808122       9.17435750      18.21066706       10       0.00003603      -0.00198182      -0.40616837
C        2.46546905       0.06402357      18.25248928       10       0.00237322      -0.00210569       0.00167114
C        3.67923265       0.76682288      18.22041060       10       0.00287121       0.00145680       0.19108092
C        1.25475440       2.16741796      18.28926501       10       0.00093516      -0.00120682       0.00060029
C        2.46700462       2.86650125      18.26735060       10       0.00003158       0.00072783      -0.01743662
C        0.04273759       4.26693017      18.28926501       10       0.00024032      -0.00113889       0.00069003
C        1.25445046       4.96692807      18.26735060       10      -0.00207374       0.00045744      -0.01732805
C       -1.17349791       6.36732249      18.25248928       10       0.00033799       0.00101781       0.00165779
C        0.04218554       7.06681479      18.22041060       10      -0.00063683      -0.00101359       0.19128372
C       -2.38099156       8.46559710      17.75786140       10       0.00128936      -0.00184146       0.23203694
C       -1.15365545       9.17396230      18.21066706       10       0.00049562       0.00113774      -0.41603485
C        4.89285513       0.06368594      18.25248928       10      -0.00033149      -0.00250737       0.00147657
C        6.10685689       0.76913535      18.30030798       10       0.00047485       0.00102677       0.04954022
C        3.67948927       2.16396639      18.25274431       10      -0.00146149       0.00166848      -0.06007324
C        4.89204456       2.86640480      18.26735060       10      -0.00044676       0.00032649      -0.01754067
C        2.46686777       4.26661251      18.26466899       10      -0.00175090       0.00017268       0.01785459
C        3.67967048       4.96675513      18.25966822       10      -0.00090915       0.00110121      -0.01747571
C        1.25221329       6.36822010      18.25274431       10       0.00034281      -0.00027743      -0.06016829
C        2.46684854       7.06695357      18.26735060       10       0.00050911       0.00106378      -0.01737449
C        0.03990164       8.46938177      18.25248928       10       0.00003990      -0.00151084       0.00147162
C        1.25793766       9.16776989      18.30030798       10       0.00023112       0.00313339       0.04927557
C        7.31737305       0.06964742      18.31560003       10      -0.00093454      -0.00112363       0.03066100
C        8.52854285       0.76897077      18.32253855       10       0.00005584       0.00093613       0.00796337
C        6.10411063       2.16708061      18.28926501       10      -0.00064759       0.00240878       0.00048042
C        7.31565122       2.86742209      18.30321030       10      -0.00106440      -0.00066260       0.01908931
C        4.89243926       4.26654719      18.26466899       10      -0.00093148       0.00100236       0.01779939
C        6.10482420       4.96692508      18.26735060       10      -0.00176219       0.00097294      -0.01756258
C        3.67959721       6.36716701      18.26466899       10      -0.00152960      -0.00058313       0.01783624
C        4.89222451       7.06703481      18.26735060       10      -0.00060473       0.00132047      -0.01748951
C        2.46718249       8.46631757      18.28926501       10      -0.00173537      -0.00129838       0.00054978
C        3.67930940       9.16545038      18.30321030       10       0.00073677       0.00205902       0.01915712
C        9.73927312       0.06854870      18.32092073       10       0.00155963      -0.00037387       0.00532846
C       10.94999252       0.76917612      18.32253855       10      -0.00042626      -0.00159602       0.00786481
C        8.52743969       2.16777959      18.32092073       10      -0.00179278       0.00149934       0.00532856
C        9.73938043       2.86624356      18.32253855       10       0.00237628      -0.00109377       0.00789914
C        7.31641530       4.26679734      18.28926501       10      -0.00193277       0.00004061       0.00061455
C        8.52844986       4.96334052      18.30030798       10       0.00202737      -0.00056455       0.04958219
C        6.10688982       6.36828663      18.25274431       10      -0.00150383      -0.00232497      -0.06010388
C        7.31677601       7.06698921      18.22041060       10       0.00010988      -0.00172805       0.19105337
C        4.89151331       8.46642178      18.28926501       10       0.00135287      -0.00074342       0.00062243
C        6.10060932       9.16808656      18.30030798       10      -0.00112012      -0.00212700       0.04960766
O       -2.38514832       8.46514132      16.40661410       11       0.00064280       0.00172270      -0.00278658
