130
Lattice="12.12 0.0 0.0 -6.06 10.496227893867395 0.0 0.0 0.0 40.0" Properties=species:S:1:pos:R:3:tags:I:1:forces:R:3 energy=-1200.7444928879584 stress="0.0028299001547584615 1.2328414364686635e-07 -1.9446301702655037e-09 1.2328414364686635e-07 0.0028295238016869074 -1.8737595278554223e-07 -1.9446301702655037e-09 -1.8737595278554223e-07 0.0021842135565917475" pbc="T T F"
C        0.00004593       0.00010143       9.99916816        2       0.00014523      -0.00004254       0.00335649
Ti       0.00000252       1.74942800       8.68827053        0       0.00006702      -0.00006925      -0.00310403
Ti       1.51481774       0.87459455      11.30334745        0       0.00027522       0.00011267       0.00088329
O       -0.00029652       1.75144303      12.23008024        3      -0.00043084       0.00037731       0.00297083
O        1.51486193       0.87461290       7.76547215        1       0.00015549       0.00006134      -0.00045293
C       -1.51472976       2.62384594       9.99795521        2       0.00014321      -0.00038059       0.00335248
Ti      -1.51490246       4.37339299       8.68794394        0       0.00014900       0.00002264      -0.00297126
Ti       0.00007345       3.49927713      11.30210152        0      -0.00010308      -0.00042678       0.00112303
O       -1.51525746       4.37275040      12.23008024        3      -0.00026008      -0.00049821      -0.02490316
O        0.00001823       3.49863000       7.76529177        1       0.00006300      -0.00008838      -0.00063391
C       -3.02957348       5.24832841       9.99795752        2       0.00022802       0.00009624       0.00317111
Ti      -3.02998670       6.99760892       8.68794176        0       0.00018784      -0.00005918      -0.00306629
Ti      -1.51552518       6.12248903      11.30217223        0       0.00022659       0.00009945       0.00053043
O       -3.03074865       6.99763099      12.23008024        3      -0.00026150       0.00009244      -0.03169396
O       -1.51498718       6.12280862       7.76508461        1      -0.00000203      -0.00001335      -0.00053662
C       -4.54498343       7.87252809       9.99787625        2      -0.00008794       0.00033100       0.00339368
Ti      -4.54492134       9.62153687       8.68827989        0      -0.00014868       0.00007864      -0.00314763
Ti      -3.02959147       8.74669913      11.30200337        0      -0.00044939       0.00009541       0.00131894
O       -4.54374434       9.62025685      12.23008024        3       0.00037936      -0.00031327      -0.00252580
O       -3.03007197       8.74695674       7.76527020        1       0.00002263      -0.00004995      -0.00055975
C        3.02975334      -0.00008366       9.99811234        2      -0.00052101      -0.00010068       0.00346650
Ti       3.02975787       1.74921086       8.68810874        0       0.00039076       0.00034382      -0.00299276
Ti       4.54494246       0.87483945      11.30196114        0       0.00011586      -0.00037331       0.00088545
O        3.02982430       1.74910300      12.23008024        3       0.00011644      -0.00043961      -0.02196429
O        4.54497793       0.87466365       7.76533217        1       0.00004569       0.00001388      -0.00058579
C        1.51479523       2.62383500       9.99810498        2      -0.00015297      -0.00047682       0.00348199
Ti       1.51491250       4.37341376       8.68798320        0      -0.00000912      -0.00000560      -0.00291961
Ti       3.03009080       3.49848349      11.30200736        0      -0.00017832       0.00015535       0.00045115
O        1.51557179       4.37288956      12.23008024        3      -0.00029197      -0.00067287      -0.02532164
O        3.02999634       3.49871717       7.76535208        1       0.00001577      -0.00004188      -0.00073060
C        0.00006285       5.24833163       9.99814840        2      -0.00017427       0.00024825       0.00303834
Ti      -0.00002514       6.99748016       8.68753113        0       0.00012439      -0.00007375      -0.00246507
Ti       1.51526184       6.12262253      11.30225859        0      -0.00031676       0.00014850       0.00006915
O       -0.00047816       6.99681432      12.23008024        3       0.00007276      -0.00019418      -0.04967219
O        1.51498774       6.12280419       7.76510634        1       0.00000926      -0.00008057      -0.00059303
C       -1.51471264       7.87207844       9.99822710        2      -0.00005318       0.00005960       0.00335375
Ti      -1.51504314       9.62149234       8.68800171        0       0.00004141      -0.00006511      -0.00306769
Ti       0.00000290       8.74691860      11.30229109        0      -0.00017429       0.00003453       0.00032466
O       -1.51521712       9.62225782      12.23008024        3      -0.00044943       0.00018977      -0.03144985
O       -0.00000119       8.74685898       7.76509713        1      -0.00005075      -0.00001561      -0.00051590
C        6.05997277      -0.00048075       9.99806027        2       0.00009232      -0.00046906       0.00312779
Ti       6.05997769       1.74918396       8.68819909        0      -0.00003872       0.00010013      -0.00290979
Ti       7.57496988       0.87476880      11.30185270        0       0.00018366      -0.00024662       0.00092120
O        6.05989440       1.74903763      12.23008024        3      -0.00001211      -0.00033418      -0.06360474
O        7.57498226       0.87463762       7.76528230        1       0.00001125       0.00006925      -0.00055542
C        4.54465412       2.62379816       9.99832775        2      -0.00008477      -0.00002839       0.00293594
Ti       4.54482990       4.37347765       8.68819795        0       0.00001598      -0.00002361      -0.00286383
Ti       6.06011663       3.49889658      11.30225378        0      -0.00003177      -0.00016627      -0.00002043
O        4.54432262       4.37359685      12.23008024        3       0.00010521      -0.00027572      -0.06428222
O        6.05998762       3.49872936       7.76540537        1       0.00001925      -0.00002912      -0.00084635
C        3.02957026       5.24830336       9.99799440        2      -0.00031543       0.00023021       0.00315824
Ti       3.02997927       6.99757032       8.68795998        0      -0.00021177      -0.00010596      -0.00301809
Ti       4.54508815       6.12277953      11.30176821        0      -0.00019863       0.00026901       0.00063159
O        3.03073539       6.99744862      12.23008024        3       0.00043140       0.00038428      -0.03956510
O        4.54497741       6.12278521       7.76527113        1       0.00000788       0.00004508      -0.00070315
C        1.51472319       7.87201863       9.99843306        2      -0.00021752       0.00011129       0.00310700
Ti       1.51503594       9.62150087       8.68797277        0      -0.00002609      -0.00018972      -0.00297678
Ti       3.02972785       8.74669695      11.30191003        0       0.00028194       0.00021845       0.00118971
O        1.51530735       9.62222707      12.23008024        3       0.00036750       0.00037214      -0.03935409
O        3.03003108       8.74690506       7.76525078        1       0.00009651      -0.00001522      -0.00060778
C        9.09020692      -0.00020347       9.99798691        2       0.00037163      -0.00007011       0.00342152
Ti       9.09024032       1.74921105       8.68804413        0      -0.00039557       0.00021879      -0.00303388
Ti      10.60507299       0.87463383      11.30317175        0      -0.00027613       0.00018418       0.00111368
O        9.09025074       1.74881562      12.23008024        3       0.00023287      -0.00007655      -0.02548714
O       10.60516296       0.87458975       7.76545535        1      -0.00019428       0.00009846      -0.00044125
C        7.57529239       2.62377142       9.99833984        2       0.00019375      -0.00010636       0.00326507
Ti       7.57515186       4.37349913       8.68818440        0      -0.00016766      -0.00011223      -0.00296876
Ti       9.09002770       3.49840676      11.30180579        0       0.00011408       0.00023504       0.00088278
O        7.57591784       4.37379432      12.23008024        3       0.00037561       0.00010035      -0.06622291
O        9.08998553       3.49873255       7.76524759        1      -0.00007379      -0.00007490      -0.00058013
C        6.05994472       5.24845986       9.99843038        2       0.00005451       0.00024147       0.00303140
Ti       6.05999468       6.99780855       8.68802739        0      -0.00005813      -0.00056553      -0.00312612
Ti       7.57479985       6.12289741      11.30169945        0       0.00032982       0.00003035       0.00091525
O        6.05979812       6.99805512      12.23008024        3       0.00027390       0.00015244      -0.02982365
O        7.57498629       6.12279644       7.76522192        1      -0.00002327      -0.00007948      -0.00059051
C        4.54488706       7.87249678       9.99789727        2       0.00021741       0.00031249       0.00348018
Ti       4.54489390       9.62150688       8.68827607        0       0.00008559       0.00006530      -0.00327128
Ti       6.06000082       8.74682489      11.30309049        0      -0.00000249      -0.00011758       0.00113613
O        4.54397124       9.62071404      12.23008024        3      -0.00030884      -0.00031807      -0.00916017
O        6.06000246       8.74707399       7.76547232        1      -0.00005872      -0.00022165      -0.00050038
C        0.04518537       0.06763502      16.75315716       10      -0.00558581      -0.00193407       0.01295146
C        1.25721347       0.76740622      16.75315716       10      -0.00156727       0.00036734      -0.00199836
C       -1.16687894       2.16683642      16.75315716       10       0.00185838       0.00003424       0.01706724
C        0.04481107       2.86651107      16.75315716       10       0.00228712      -0.00139392       0.00699973
C       -2.37847464       4.26598973      16.75315716       10      -0.00035601      -0.00001144       0.00419007
C       -1.16723727       4.96534476      16.75315716       10       0.00071947      -0.00014711       0.00555928
C       -3.59057397       6.36567434      16.75315716       10      -0.00210900       0.00106791       0.00396567
C       -2.37932688       7.06489096      16.75315716       10      -0.00161823       0.00081893       0.00727160
C       -4.80287740       8.46484396      16.75315716       10      -0.00217617      -0.00004944       0.01593444
C       -3.59120278       9.16429818      16.75315716       10       0.00343120       0.00177611       0.00770047
C        2.46910854       0.06742433      16.75315716       10      -0.00404810      -0.00092986       0.01659699
C        3.68103364       0.76749845      16.75315716       10      -0.00490749       0.00017350       0.01387624
C        1.25664338       2.16689347      16.75315716       10       0.00130775      -0.00172410       0.01693589
C        2.46888540       2.86635627      16.75315716       10       0.00122181      -0.00046855       0.01614346
C        0.04499268       4.26594157      16.75315716       10      -0.00003069      -0.00133788       0.01778616
C        1.25719865       4.96524708      16.75315716       10      -0.00083728      -0.00051407       0.00430972
C       -1.16672873       6.36523536      16.75315716       10      -0.00239516       0.00041435      -0.00004109
C        0.04515512       7.06493099      16.75315716       10      -0.00248181       0.00056805       0.01993248
C       -2.37913763       8.46457632      16.75315716       10       0.00067608      -0.00005098       0.01457238
C       -1.16743139       9.16465190      16.75315716       10       0.00009530       0.00058236       0.00562417
C        4.89283305       0.06722268      16.75315716       10      -0.00379964       0.00091471       0.00546218
C        6.10504737       0.76751789      16.75315716       10      -0.00166138      -0.00057867       0.01955979
C        3.68043771       2.16656571      16.75315716       10       0.00079765      -0.00020396       0.01283369
C        4.89269223       2.86656116      16.75315716       10       0.00247304      -0.00058562       0.01293786
C        2.46850576       4.26589038      16.75315716       10      -0.00017304      -0.00013457       0.00537997
C        3.68104839       4.96566466      16.75315716       10       0.00030040       0.00014159       0.01874509
C        1.25711403       6.36514266      16.75315716       10      -0.00231704       0.00063111      -0.00318600
C        2.46962911       7.06490720      16.75315716       10      -0.00075743       0.00030301       0.00881712
C        0.04483990       8.46450665      16.75315716       10       0.00159591       0.00066656      -0.00637702
C        1.25702313       9.16483243      16.75315716       10       0.00368119      -0.00079323       0.00886855
C        7.31737011       0.06736408      16.75315716       10      -0.00015105      -0.00048107       0.00506646
C        8.52934679       0.76759402      16.75315716       10      -0.00062216      -0.00000179       0.01331550
C        6.10478505       2.16629137      16.75315716       10       0.00263262      -0.00051230       0.01011485
C        7.31702440       2.86652594      16.75315716       10       0.00255807      -0.00032975       0.01140889
C        4.89249642       4.26625671      16.75315716       10       0.00099222       0.00058952       0.01331783
C        6.10504066       4.96600771      16.75315716       10       0.00005770       0.00161580       0.00952424
C        3.68098060       6.36567670      16.75315716       10      -0.00127802       0.00049651       0.00514078
C        4.89342529       7.06518524      16.75315716       10      -0.00152169       0.00185716       0.01478394
C        2.46879975       8.46460968      16.75315716       10       0.00484114      -0.00007137       0.01084662
C        3.68089390       9.16435405      16.75315716       10       0.00399372       0.00093164       0.00883648
C        9.74128160       0.06742843      16.75315716       10      -0.00336206      -0.00183630       0.01615249
C       10.95302029       0.76743684      16.75315716       10       0.00217548       0.00002630       0.00068367
C        8.52944226       2.16656838      16.75315716       10       0.00174591      -0.00081487       0.00935061
C        9.74093402       2.86644806      16.75315716       10       0.00204232      -0.00088090       0.01879901
C        7.31733574       4.26620635      16.75315716       10      -0.00065790       0.00035512       0.01655015
C        8.52897284       4.96569649      16.75315716       10       0.00033578       0.00027576       0.01894507
C        6.10521189       6.36602260      16.75315716       10      -0.00247835       0.00168357       0.00791788
C        7.31706959       7.06522244      16.75315716       10      -0.00196854       0.00014337       0.01779646
C        4.89274006       8.46486646      16.75315716       10       0.00148001      -0.00034932       0.01530937
C        6.10486781       9.16425298      16.75315716       10       0.00553531       0.00180888       0.00261940
