132
Lattice="12.12 0.0 0.0 -6.06 10.496227893867395 0.0 0.0 0.0 40.0" Properties=species:S:1:pos:R:3:tags:I:1:forces:R:3 stress="0.002809687722296589 1.8370812973031366e-06 -1.9534340108217784e-06 1.8370812973031366e-06 0.002811672464131343 1.5158841328494485e-06 -1.9534340108217784e-06 1.5158841328494485e-06 0.001838025691409298" energy=-1208.2737060623463 pbc="T T F"
C        0.00080724       0.00091882      10.00173416        2      -0.00230390       0.00044312       0.00078290
Ti       0.00227070       1.74925697       8.69107587        0      -0.00090831       0.00010887      -0.00300515
Ti       1.51585821       0.87536319      11.31145040        0       0.00065130      -0.00016437      -0.00129172
O       -0.00038314       1.75047465      12.23008024        3       0.00114284      -0.00056207       0.04052050
O        1.51573410       0.87524628       7.76985136        1       0.00038405       0.00002649      -0.00129427
C       -1.51391659       2.62448114      10.00236629        2      -0.00100716       0.00096169      -0.00322511
Ti      -1.51430085       4.37447536       8.69006597        0      -0.00143846      -0.00069407      -0.00317169
Ti      -0.00173595       3.50043535      11.31727686        0      -0.00075781      -0.00021280      -0.00066990
O       -1.51594562       4.37431404      12.23008024        3       0.00113377       0.00297432       0.05698821
O        0.00003358       3.49856710       7.77182722        1       0.00121049       0.00066499      -0.00169510
C       -3.02918251       5.25026132       9.99942762        2      -0.00115790      -0.00449854      -0.00056918
Ti      -3.02924100       6.99883660       8.68881846        0      -0.00004024       0.00004104      -0.00263248
Ti      -1.51482429       6.12337138      11.31260865        0       0.00045491      -0.00060319      -0.00094817
O       -3.02968961       6.99807993      12.23008024        3      -0.00056600      -0.00001170       0.04051895
O       -1.51438565       6.12292091       7.76968732        1       0.00039554       0.00161988      -0.00167465
C       -4.54421336       7.87250844      10.00066928        2      -0.00045775       0.00041095      -0.00065016
Ti      -4.54470608       9.62220470       8.69029711        0      -0.00033962       0.00011618      -0.00136129
Ti      -3.02966544       8.74765041      11.31233623        0       0.00012139      -0.00050090      -0.00178323
O       -4.54455886       9.62235647      12.23008024        3      -0.00130933      -0.00096087       0.03221641
O       -3.02948140       8.74826749       7.76925300        1      -0.00095836      -0.00080434       0.00016491
C        3.03091359       0.00077617      10.00095925        2       0.00065755      -0.00030046      -0.00004424
Ti       3.03076261       1.75027597       8.68977494        0      -0.00071162       0.00027594      -0.00106468
Ti       4.54571340       0.87583708      11.31249384        0       0.00077227       0.00079561      -0.00157973
O        3.03070036       1.75036662      12.23008024        3       0.00001762       0.00158153       0.03625217
O        4.54532384       0.87508182       7.76913619        1      -0.00039426       0.00123835      -0.00025925
C        1.51538948       2.62454530      10.00149979        2      -0.00075983       0.00105529       0.00092350
Ti       1.51565797       4.37403457       8.69012940        0      -0.00030631      -0.00034025      -0.00022431
Ti       3.03102952       3.49956058      11.31117145        0      -0.00039141       0.00103357      -0.00006271
O        1.51532204       4.37411966      12.23008024        3       0.00088014       0.00058550       0.04144004
O        3.03049830       3.49938679       7.76949917        1      -0.00009199      -0.00007911       0.00081732
C        0.00024266       5.24872759      10.00106757        2       0.00064985      -0.00089244       0.00074852
Ti       0.00081066       6.99802114       8.68982364        0      -0.00041975      -0.00030295      -0.00060085
Ti       1.51554980       6.12367473      11.31078416        0      -0.00038687      -0.00017769       0.00085192
O        0.00045167       6.99794357      12.23008024        3       0.00031068      -0.00006355       0.04381802
O        1.51570512       6.12331537       7.76954456        1      -0.00107788      -0.00095214       0.00053606
C       -1.51449077       7.87292541      10.00060046        2       0.00057588       0.00090145      -0.00036689
Ti      -1.51403413       9.62199308       8.68883127        0      -0.00049929       0.00005056      -0.00214383
Ti       0.00081580       8.74719847      11.31175910        0       0.00063235      -0.00000609      -0.00103064
O       -1.51417333       9.62232580      12.23008024        3       0.00044799      -0.00033465       0.03465321
O        0.00095312       8.74770128       7.76954314        1       0.00125852      -0.00118782       0.00023075
C        6.06051484       0.00093426      10.00058784        2       0.00020320      -0.00069971       0.00031894
Ti       6.06034264       1.74988214       8.68861175        0      -0.00024550      -0.00004346      -0.00233961
Ti       7.57480700       0.87508755      11.31072398        0       0.00128618       0.00045470      -0.00091175
O        6.06091821       1.75060686      12.23008024        3      -0.00012822       0.00057171       0.04707930
O        7.57641124       0.87582657       7.76938039        1      -0.00204289      -0.00137020      -0.00078620
C        4.54617906       2.62462384      10.00027442        2      -0.00108197       0.00061271       0.00021663
Ti       4.54589714       4.37376737       8.68932776        0       0.00020817       0.00014973      -0.00116714
Ti       6.06254487       3.49994101      11.31124072        0      -0.00019031       0.00092954      -0.00053952
O        4.54673979       4.37388305      12.23008024        3      -0.00031659      -0.00012940       0.04377261
O        6.06124690       3.49928602       7.76896939        1      -0.00124225      -0.00040477      -0.00057615
C        3.03064492       5.24824678      10.00053966        2       0.00082083       0.00181422       0.00178190
Ti       3.03067447       6.99823642       8.68843080        0       0.00008796       0.00028029      -0.00329390
Ti       4.54592725       6.12328224      11.31199246        0      -0.00017968       0.00017151      -0.00081808
O        3.03089801       6.99791434      12.23008024        3      -0.00041848       0.00047667       0.04390990
O        4.54587092       6.12346572       7.76971970        1       0.00044508      -0.00027385      -0.00092517
C        1.51562846       7.87289319      10.00047433        2       0.00093697      -0.00052937       0.00096882
Ti       1.51621116       9.62251716       8.69022457        0      -0.00016555       0.00027812      -0.00125550
Ti       3.03015581       8.74743933      11.31071151        0      -0.00006229       0.00049363       0.00043393
O        1.51543269       9.62241373      12.23008024        3       0.00016485       0.00056694       0.04336181
O        3.03096207       8.74781579       7.76984181        1       0.00032302       0.00128487      -0.00062363
C        9.09039866       0.00121766      10.00125904        2       0.00151906      -0.00027007       0.00023213
Ti       9.09040970       1.75030383       8.68941542        0       0.00012636       0.00135024      -0.00266828
Ti      10.60305436       0.87748646      11.31988819        0      -0.00028618      -0.00002960      -0.00217036
O        9.08942584       1.75153863      12.23008024        3      -0.00170674      -0.00180667       0.05396709
O       10.60611074       0.87618067       7.77251433        1       0.00024365      -0.00126071      -0.00304592
C        7.57501551       2.62437920       9.99917064        2       0.00259345       0.00268912      -0.00108117
Ti       7.57605812       4.37401273       8.68884412        0       0.00141789      -0.00037481      -0.00202077
Ti       9.09191975       3.49893818      11.30076453        0      -0.00082194       0.00037328      -0.00416862
O        7.57873705       4.37214802      12.23008024        3      -0.00176178       0.00101377       0.08980997
O        9.09164188       3.49907192       7.76962777        1      -0.00071674       0.00039977      -0.00584405
C        6.06174273       5.24830361      10.00036150        2      -0.00128631       0.00062919       0.00120899
Ti       6.06101937       6.99826403       8.68901649        0      -0.00001993      -0.00004954      -0.00031370
Ti       7.57603558       6.12152649      11.31211084        0      -0.00093504      -0.00009232      -0.00114325
O        6.06119057       6.99740105      12.23008024        3      -0.00023386       0.00020194       0.03887656
O        7.57605368       6.12334795       7.76911290        1      -0.00019930       0.00156426      -0.00082451
C        4.54603284       7.87319371      10.00085268        2      -0.00110608      -0.00129263       0.00120305
Ti       4.54576614       9.62217489       8.69102726        0       0.00036330       0.00100631      -0.00112890
Ti       6.06065394       8.74742517      11.31120974        0      -0.00109562      -0.00059419      -0.00052791
O        4.54512732       9.62327143      12.23008024        3       0.00054660      -0.00099773       0.03489481
O        6.06043791       8.74789635       7.76973990        1       0.00077625      -0.00015251       0.00035676
C        0.06877248       0.05340818      18.10010046       10       0.00139956       0.00260117      -0.00017108
C        1.27601424       0.75629197      18.10848869       10      -0.00150768       0.00034529       0.00632010
C       -1.12148563       2.14060709      18.07572979       10      -0.00175196      -0.00001700       0.56948608
C        0.06536382       2.85345156      18.08336853       10      -0.00273009       0.00025840      -0.01541752
C       -2.36352995       4.28887146      18.07572424       10      -0.00060848      -0.00015823       0.37080011
C       -1.15337890       4.96210939      18.08336597       10      -0.00192383      -0.00074487      -0.00488779
C       -3.57622444       6.36785658      18.10009991       10      -0.00014154       0.00007139      -0.00326403
C       -2.36365381       7.06030028      18.10848849       10       0.00036622      -0.00205971       0.00518058
C       -4.78719512       8.45650709      18.09820752       10       0.00349695      -0.00084933      -0.00019233
C       -3.57526550       9.15574691      18.10949718       10      -0.00066163      -0.00253833      -0.00488557
C        2.48708713       0.05706170      18.11052220       10       0.00072664       0.00094360       0.00644857
C        3.69617718       0.75795347      18.10949709       10       0.00134732       0.00078918      -0.00460407
C        1.28100341       2.15319248      18.10010067       10      -0.00081670       0.00138039      -0.00078826
C        2.48609501       2.85766138      18.09104054       10       0.00055112      -0.00052426      -0.00372109
C        0.06272058       4.25848506      18.05724065       10      -0.00136400       0.00000455      -0.01486479
C        1.27023213       4.95620676      18.06891060       10      -0.00055452       0.00002944      -0.02341049
C       -1.15250625       6.36596040      18.10009991       10       0.00116951       0.00013300       0.01224423
C        0.06049201       7.05809625      18.09104064       10       0.00090277       0.00005973      -0.01422615
C       -2.36374083       8.45898601      18.11052241       10       0.00085359      -0.00154526       0.00522371
C       -1.15242148       9.15587054      18.10949718       10       0.00019682      -0.00122740      -0.01206122
C        4.90540166       0.05711498      18.11052220       10      -0.00053766      -0.00024918       0.00485313
C        6.11665249       0.75643620      18.10848869       10       0.00018042      -0.00103412       0.01009461
C        3.69557685       2.15713056      18.09820739       10       0.00206197       0.00040240      -0.00537172
C        4.90496242       2.85823617      18.09104054       10       0.00434506      -0.00209409       0.01134672
C        2.48382190       4.25631157      18.07715704       10       0.00032190      -0.00106212      -0.00535567
C        3.69577287       4.95746248      18.07436918       10       0.00192398      -0.00226689      -0.00886704
C        1.27056684       6.35733791      18.07715694       10       0.00060095       0.00088364      -0.00444059
C        2.48397893       7.05650153      18.07436907       10       0.00020770       0.00049247      -0.01965813
C        0.05892766       8.45638582      18.09820752       10       0.00040856       0.00040163       0.00046744
C        1.27066507       9.15420876      18.09104039       10       0.00079851       0.00033522      -0.00857865
C        7.32351524       0.05448578      18.10010046       10      -0.00078294       0.00068007       0.01009831
C        8.53884616       0.75715056      18.08336834       10      -0.00120904      -0.00020562       0.00102401
C        6.10960670       2.15279913      18.10010067       10       0.00350498      -0.00139379      -0.01034212
C        7.32639480       2.85252895      18.08336853       10       0.00198348      -0.00040643       0.01857009
C        4.90729876       4.25606211      18.07715704       10       0.00380492      -0.00190624      -0.00730937
C        6.12052844       4.95681074      18.06891060       10       0.00202453      -0.00049464      -0.01069431
C        3.69602270       6.35690884      18.07129118       10      -0.00190504      -0.00188872      -0.01727216
C        4.90809969       7.05653806      18.07436907       10      -0.00315677      -0.00184569      -0.00699290
C        2.48266046       8.45683776      18.07715677       10       0.00033157       0.00047808      -0.00474669
C        3.69594133       9.15765810      18.06891019       10       0.00136980      -0.00135652      -0.01567302
C        9.75654357       0.05595494      18.05724060       10       0.00006651       0.00086601      -0.01606965
C       10.97474074       0.75622128      18.08336834       10      -0.00530798       0.00047570      -0.01168608
C        8.51642223       2.14161644      18.07572979       10      -0.00001016       0.00030105       0.37463915
C        9.75542868       2.85768991      17.83137053       10      -0.00283414       0.00097521      -1.78025907
C        7.32844604       4.25935087      18.05724065       10       0.00259623       0.00095600      -0.05961836
C        8.54597769       4.96415667      18.08336597       10      -0.00048270       0.00256798       0.01799763
C        6.12129787       6.35784748      18.07715694       10      -0.00241144      -0.00080864      -0.00319442
C        7.33074621       7.05854787      18.09104064       10      -0.00292327      -0.00054733       0.01089685
C        4.90897809       8.45658525      18.07715677       10       0.00255249      -0.00017794      -0.00194904
C        6.12141752       9.15378248      18.09104039       10      -0.00131151      -0.00031809      -0.00369515
O        9.83125418       2.81339144      16.26833002       11       0.00511559       0.00174216       0.00777359
H        9.04249583       3.24493457      15.89138738       12      -0.00150923       0.00137040      -0.00352966
