130
Lattice="12.12 0.0 0.0 -6.06 10.496227893867395 0.0 0.0 0.0 40.0" Properties=species:S:1:pos:R:3:tags:I:1:forces:R:3 energy=-1198.505004758504 stress="0.002749348511586228 2.3502216263110517e-07 -1.833518085105911e-06 2.3502216263110517e-07 0.002749065013575869 -2.7936729497238537e-06 -1.833518085105911e-06 -2.7936729497238537e-06 0.0031592697752058163" pbc="T T F"
C       -0.00035672      -0.00048480       9.97606785        2      -0.00056626      -0.00079330       0.00046039
Ti      -0.00001821       1.74941598       8.69912004        0      -0.00027513      -0.00025177      -0.00106754
Ti       1.51176159       0.87297301      11.27751032        0       0.00036165       0.00034603      -0.00013967
O       -0.00148342       1.74975949      12.23008024        3      -0.00065838      -0.00121799      -0.17755150
O        1.51416797       0.87411419       7.77179337        1       0.00027762      -0.00022290       0.00158251
C       -1.51488442       2.62304334       9.97330793        2      -0.00043851      -0.00172224       0.00012664
Ti      -1.51500863       4.37286796       8.70036545        0      -0.00070632      -0.00057838      -0.00166926
Ti      -0.00091628       3.49477857      11.28171489        0       0.00019130       0.00132974       0.00073687
O       -1.52049015       4.37279175      12.23008024        3      -0.00048666      -0.00039933      -0.18669837
O        0.00019068       3.49867625       7.77347076        1      -0.00045180      -0.00026097       0.00126567
C       -3.03077626       5.24731391       9.97287214        2      -0.00058364      -0.00058326      -0.00013141
Ti      -3.03031333       6.99755392       8.70015335        0      -0.00066070      -0.00096895      -0.00118607
Ti      -1.51887816       6.11988393      11.28809103        0      -0.00014457      -0.00082229       0.00037263
O       -3.03382117       6.99269768      12.23008024        3       0.00001304      -0.00031572      -0.19243833
O       -1.51445389       6.12297678       7.77591527        1      -0.00035892      -0.00047503       0.00107063
C       -4.54585291       7.87248775       9.97283791        2      -0.00067611       0.00044560       0.00053528
Ti      -4.54479353       9.62140533       8.69937300        0      -0.00053436      -0.00040784      -0.00094576
Ti      -3.03408117       8.74734121      11.28324438        0       0.00036550      -0.00080819      -0.00051981
O       -4.54526219       9.61857234      12.23008024        3      -0.00030856      -0.00033701      -0.17529727
O       -3.02954977       8.74701859       7.77405760        1      -0.00014962      -0.00068993       0.00140487
C        3.02863201       0.00005776       9.97490876        2      -0.00107227      -0.00072220       0.00030842
Ti       3.02899169       1.74863081       8.70030577        0       0.00034275       0.00019342      -0.00178400
Ti       4.54521107       0.87903868      11.28778199        0       0.00000446       0.00011465       0.00018011
O        3.03496898       1.75244015      12.23008024        3       0.00005724      -0.00070885      -0.15924601
O        4.54417141       0.87381939       7.77435597        1       0.00023259      -0.00025623       0.00114907
C        1.51443817       2.62288737       9.97442087        2      -0.00111267      -0.00179310      -0.00010312
Ti       1.51491616       4.37291123       8.70133531        0       0.00023454      -0.00043292      -0.00131842
Ti       3.03424222       3.49713396      11.28663612        0      -0.00022348      -0.00010283       0.00031836
O        1.51830430       4.37319354      12.23008024        3      -0.00042011      -0.00037848      -0.18557873
O        3.02897368       3.49802514       7.77377045        1       0.00003931      -0.00013976       0.00085786
C       -0.00036470       5.24634058       9.97606127        2      -0.00096595      -0.00089788      -0.00090589
Ti      -0.00015197       6.99725919       8.70237488        0      -0.00014402      -0.00057479      -0.00057582
Ti       1.51700688       6.12069488      11.28724785        0      -0.00017971      -0.00102312       0.00081375
O       -0.00030481       6.99653763      12.23008024        3      -0.00033152       0.00002681      -0.22109375
O        1.51437265       6.12282877       7.77623760        1      -0.00034250      -0.00036611       0.00098188
C       -1.51640073       7.87205795       9.97613216        2      -0.00103085       0.00006013      -0.00065871
Ti      -1.51514491       9.62159355       8.70211536        0      -0.00013093       0.00000887      -0.00155031
Ti      -0.00019883       8.74725215      11.28765681        0      -0.00014281      -0.00067086       0.00105604
O       -1.51381358       9.62337774      12.23008024        3      -0.00021453      -0.00083539      -0.18854927
O       -0.00016719       8.74623612       7.77667351        1      -0.00022142      -0.00028546       0.00128155
C        6.05961710       0.00059245       9.97453824        2      -0.00011123      -0.00031301      -0.00031815
Ti       6.05957550       1.74881160       8.69760639        0      -0.00015569       0.00044374      -0.00160999
Ti       7.57401773       0.88013175      11.28807581        0      -0.00076518      -0.00040154       0.00016733
O        6.06027482       1.75566274      12.23008024        3       0.00024846      -0.00037139      -0.16495117
O        7.57509685       0.87394617       7.77428014        1      -0.00052076      -0.00030092       0.00141301
C        4.54405845       2.62342385       9.97245072        2      -0.00000446      -0.00102164      -0.00054522
Ti       4.54441802       4.37299424       8.69657877        0       0.00029252      -0.00054023      -0.00111765
Ti       6.06072390       3.49975337      11.27350512        0      -0.00160377      -0.00021192       0.00453825
O        4.55039165       4.37120107      12.23008024        3       0.00048549      -0.00008763      -0.16494625
O        6.05968091       3.49826779       7.77094929        1      -0.00013578      -0.00037068       0.00194709
C        3.03038487       5.24703855       9.97374237        2      -0.00007207      -0.00016345      -0.00075166
Ti       3.03010841       6.99729541       8.70072754        0      -0.00001857      -0.00104909      -0.00138052
Ti       4.54959373       6.11841460      11.28571145        0      -0.00059193      -0.00185541       0.00051144
O        3.03298087       6.99393762      12.23008024        3       0.00003103       0.00052500      -0.19907018
O        4.54461025       6.12295042       7.77351654        1      -0.00029739      -0.00056844       0.00091145
C        1.51587650       7.87215469       9.97612495        2       0.00014513       0.00058645      -0.00104067
Ti       1.51481794       9.62165470       8.70176793        0      -0.00020402      -0.00003307      -0.00188400
Ti       3.03391096       8.74814363      11.28371570        0      -0.00175303      -0.00181963       0.00090578
O        1.51394217       9.62404147      12.23008024        3      -0.00021786      -0.00026062      -0.19639612
O        3.02928574       8.74663673       7.77449458        1      -0.00029526      -0.00044880       0.00141061
C        9.09095091       0.00034910       9.97421165        2       0.00075442      -0.00027979       0.00029232
Ti       9.09081584       1.74864209       8.69917028        0      -0.00097383       0.00013476      -0.00189610
Ti      10.60595604       0.87379543      11.27745213        0      -0.00061825       0.00017196       0.00021502
O        9.08404196       1.75326019      12.23008024        3      -0.00058530      -0.00040067      -0.16241335
O       10.60586532       0.87400444       7.77155404        1      -0.00105532      -0.00008218       0.00171465
C        7.57523104       2.62348458       9.97227175        2       0.00051038      -0.00081707       0.00020867
Ti       7.57505973       4.37319226       8.69530250        0      -0.00099505      -0.00081875      -0.00116417
Ti       9.08425397       3.49777982      11.28395917        0      -0.00011598       0.00023357       0.00036951
O        7.57018096       4.37120803      12.23008024        3      -0.00007975      -0.00044400      -0.16754641
O        9.09053453       3.49820944       7.77287526        1      -0.00076796      -0.00028821       0.00128946
C        6.05967608       5.24827255       9.97223422        2       0.00049013       0.00017121      -0.00037596
Ti       6.05991744       6.99857194       8.69827361        0      -0.00041041      -0.00153814      -0.00163209
Ti       7.57083739       6.11792334      11.28312206        0      -0.00045831      -0.00112229       0.00038169
O        6.06021274       6.98967277      12.23008024        3       0.00013821       0.00003960      -0.16290471
O        7.57501765       6.12314310       7.77272957        1      -0.00020783      -0.00095070       0.00104342
C        4.54578067       7.87246842       9.97325947        2       0.00061044       0.00102270       0.00035825
Ti       4.54472892       9.62138992       8.69934629        0      -0.00038659      -0.00044643      -0.00147964
Ti       6.05965834       8.74657441      11.27851025        0      -0.00026142      -0.00129563      -0.00051596
O        4.54364461       9.61930513      12.23008024        3      -0.00024885       0.00023358      -0.17541035
O        6.05991650       8.74810775       7.77156334        1      -0.00025782      -0.00128094       0.00159097
C        0.04527966       0.06796610      15.03008024       10       0.00159193       0.00057553       0.03033126
C        1.25782430       0.76804950      15.03008024       10       0.00217523       0.00144860       0.07987696
C       -1.16755810       2.16889776      15.03008024       10      -0.00067472       0.00013825       0.02673598
C        0.04548641       2.86788602      15.03008024       10      -0.00099922       0.00078821       0.07980928
C       -2.37926384       4.26841066      15.03008024       10       0.00063017       0.00116667       0.04703798
C       -1.16635333       4.96723883      15.03008024       10       0.00104890       0.00089582       0.05063742
C       -3.58964171       6.36480570      15.03008024       10       0.00113677       0.00069046       0.04901868
C       -2.37768215       7.06555112      15.03008024       10       0.00077163       0.00062910       0.04716169
C       -4.80156026       8.46329566      15.03008024       10      -0.00137098       0.00121866       0.02998165
C       -3.58992091       9.16450905      15.03008024       10      -0.00013499       0.00079997       0.07905888
C        2.47152544       0.06791215      15.03008024       10       0.00161939       0.00070974       0.03767963
C        3.68212688       0.76794517      15.03008024       10       0.00157341       0.00003919       0.06642332
C        1.25838758       2.16902190      15.03008024       10      -0.00054455       0.00139312       0.03022091
C        2.46974962       2.86803707      15.03008024       10       0.00000369       0.00035943       0.06448832
C        0.04533072       4.26954708      15.03008024       10       0.00080786       0.00087118       0.09664714
C        1.25719379       4.96734463      15.03008024       10       0.00102095       0.00087332       0.05446681
C       -1.16593873       6.36652923      15.03008024       10       0.00048920       0.00056053       0.14377312
C        0.04552420       7.06593880      15.03008024       10       0.00022973       0.00045902       0.05245613
C       -2.37628617       8.46373324      15.03008024       10       0.00000691       0.00046479       0.10754383
C       -1.16590032       9.16430607      15.03008024       10       0.00048961       0.00019547       0.05175110
C        4.89530929       0.06752568      15.03008024       10       0.00161454       0.00047563       0.07570461
C        6.10564216       0.76783230      15.03008024       10       0.00104030       0.00126381       0.05831207
C        3.68347577       2.16876245      15.03008024       10       0.00021583      -0.00006790       0.01838320
C        4.89435200       2.86765897      15.03008024       10       0.00007070       0.00040429       0.05326661
C        2.47000024       4.26893860      15.03008024       10       0.00051520       0.00038158       0.06078164
C        3.68177215       4.96680107      15.03008024       10       0.00010280       0.00064289       0.05638296
C        1.25685409       6.36673827      15.03008024       10       0.00055506       0.00099764       0.15140369
C        2.46837849       7.06570770      15.03008024       10       0.00055729       0.00097749       0.04504702
C        0.04563936       8.46447716      15.03008024       10       0.00042862       0.00018264       0.15834532
C        1.25688451       9.16410596      15.03008024       10       0.00004818       0.00059617       0.04560540
C        7.31602603       0.06747110      15.03008024       10       0.00075902       0.00100216       0.07774943
C        8.52873609       0.76791134      15.03008024       10       0.00054767       0.00138871       0.06064872
C        6.10556769       2.16820794      15.03008024       10       0.00070091       0.00117745      -0.01090394
C        7.31640449       2.86761793      15.03008024       10       0.00048926       0.00110305       0.05243891
C        4.89442258       4.26647728      15.03008024       10      -0.00018041       0.00050403      -0.01841582
C        6.10538103       4.96534298      15.03008024       10       0.00035966       0.00021661       0.05164415
C        3.68032718       6.36527345      15.03008024       10       0.00067101       0.00057064       0.06444987
C        4.89303341       7.06512276      15.03008024       10       0.00136244      -0.00057061       0.05710352
C        2.46740700       8.46395918      15.03008024       10      -0.00021541       0.00086891       0.11952497
C        3.68092051       9.16456644      15.03008024       10      -0.00089529       0.00072750       0.07553883
C        9.73896488       0.06778671      15.03008024       10       0.00042464       0.00086947       0.04324438
C       10.95286895       0.76799990      15.03008024       10       0.00173380       0.00012350       0.07731537
C        8.52740352       2.16871315      15.03008024       10       0.00012165       0.00124144       0.01112637
C        9.74116920       2.86787418      15.03008024       10      -0.00021325       0.00118400       0.05765902
C        7.31645189       4.26625577      15.03008024       10       0.00014679       0.00060075      -0.02600346
C        8.52895244       4.96634768      15.03008024       10       0.00029153       0.00078334       0.05612208
C        6.10542999       6.36351887      15.03008024       10       0.00212269       0.00023968       0.00619100
C        7.31781722       7.06498401      15.03008024       10       0.00153836       0.00126634       0.05625159
C        4.89214364       8.46325339      15.03008024       10      -0.00161600      -0.00039182       0.03913799
C        6.10543153       9.16436075      15.03008024       10      -0.00129276       0.00050107       0.07543233
