131
Lattice="12.12 0.0 0.0 -6.06 10.496227893867395 0.0 0.0 0.0 40.0" Properties=species:S:1:pos:R:3:tags:I:1:forces:R:3 stress="0.0028462353819837393 5.814866097690345e-08 1.3695339005632105e-06 5.814866097690345e-08 0.00284668191865142 -8.428864793626454e-07 1.3695339005632105e-06 -8.428864793626454e-07 0.002113283155232261" energy=-1205.0118213332005 pbc="T T F"
C       -0.00103393       0.00044909      10.00382443        2       0.00062811      -0.00039329       0.00196275
Ti       0.00045990       1.74908641       8.69187248        0      -0.00002836       0.00004123      -0.00462644
Ti       1.51663235       0.87442529      11.31300804        0       0.00002929       0.00029142       0.00389693
O        0.00043032       1.75055279      12.23008024        3       0.00037959       0.00026919       0.08962094
O        1.51659597       0.87200440       7.77545995        1      -0.00004595      -0.00030124       0.00065022
C       -1.51462270       2.62411235      10.00265518        2       0.00034802       0.00016792       0.00148370
Ti      -1.51485530       4.37422057       8.69438625        0       0.00032307      -0.00055126      -0.00430274
Ti       0.00050823       3.49976741      11.30840997        0       0.00110724       0.00052849       0.00267625
O       -1.51395368       4.37451260      12.23008024        3       0.00033121       0.00022452       0.10692564
O       -0.00079756       3.49870129       7.77099621        1       0.00012511       0.00005533       0.00061098
C       -3.02996895       5.24722692      10.00558539        2       0.00028572       0.00077081       0.00278261
Ti      -3.03135510       6.99594250       8.70000406        0       0.00028289      -0.00024153      -0.00403549
Ti      -1.51497038       6.12760758      11.32068426        0       0.00002579      -0.00014891       0.00533784
O       -3.03217830       6.99191378      12.23008024        3       0.00069161      -0.00016305       0.03155698
O       -1.51580752       6.12602310       7.77862528        1       0.00007408      -0.00033478       0.00180336
C       -4.54518255       7.87119361      10.01040579        2       0.00087651       0.00001126       0.00338070
Ti      -4.54504174       9.62128774       8.69959959        0      -0.00006084       0.00004159      -0.00464730
Ti      -3.02832340       8.74599922      11.33467732        0      -0.00008821       0.00001476       0.00596965
O       -4.54738952       9.62235666      12.23008024        3       0.00071067      -0.00033065       0.03598906
O       -3.02838413       8.74612671       7.78228263        1       0.00013566      -0.00012040       0.00212917
C        3.03088084       0.00011129      10.01174695        2       0.00055357      -0.00087095       0.00349367
Ti       3.03000185       1.74932748       8.69685314        0       0.00020772       0.00008664      -0.00464587
Ti       4.54497536       0.87587675      11.31555129        0      -0.00003001      -0.00036017       0.00493333
O        3.03056850       1.75227001      12.23008024        3       0.00042928      -0.00088675       0.09864458
O        4.54433165       0.87197774       7.77627661        1       0.00043117      -0.00062403       0.00133853
C        1.51529665       2.62405566      10.00268539        2       0.00074892      -0.00036955       0.00214180
Ti       1.51461556       4.37291319       8.69119234        0       0.00058151      -0.00009472      -0.00374781
Ti       3.03033586       3.50003578      11.30746849        0       0.00053257      -0.00001529       0.00200429
O        1.51584823       4.37360121      12.23008024        3       0.00087735       0.00059348       0.10059853
O        3.03001029       3.49674489       7.77078990        1       0.00015148      -0.00028193       0.00029381
C        0.00157739       5.24741071      10.00301623        2       0.00002709       0.00052075       0.00239198
Ti       0.00237851       6.99611115       8.69878471        0       0.00046851      -0.00028405      -0.00440156
Ti       1.51728290       6.12135603      11.30731206        0       0.00016417      -0.00010194       0.00356388
O        0.00516316       6.99452483      12.23008024        3      -0.00046662       0.00039003       0.10882596
O        1.51327415       6.12376753       7.77109988        1      -0.00032311       0.00018720       0.00100794
C       -1.51489028       7.87211514      10.01862355        2      -0.00045125       0.00024658       0.00395392
Ti      -1.51432879       9.62330329       8.70039739        0       0.00030605      -0.00020283      -0.00414528
Ti      -0.00418858       8.74450012      11.32128205        0       0.00020656       0.00010957       0.00539952
O       -1.51146944       9.62568552      12.23008024        3       0.00043591      -0.00041809       0.01629768
O       -0.00320087       8.74610381       7.77892982        1       0.00026987       0.00011868       0.00181026
C        6.06069857       0.00041201      10.00626783        2      -0.00055924      -0.00059391       0.00283283
Ti       6.06032538       1.74932450       8.69441525        0       0.00026022       0.00005250      -0.00444790
Ti       7.57517637       0.87345016      11.30922371        0      -0.00034240       0.00017367       0.00323391
O        6.06237268       1.75209389      12.23008024        3       0.00004561       0.00031415       0.12584885
O        7.57420053       0.87355728       7.77193001        1       0.00019201      -0.00013072       0.00077657
C        4.54515830       2.62495620      10.00301805        2      -0.00025644      -0.00067209       0.00163503
Ti       4.54539619       4.37333737       8.68950783        0       0.00027606      -0.00018980      -0.00354486
Ti       6.05960396       3.49905344      11.30812866        0      -0.00053092       0.00031721       0.00232187
O        4.54554606       4.37373969      12.23008024        3       0.00034631      -0.00001114       0.12215496
O        6.06080193       3.49810418       7.77098229        1       0.00063565      -0.00032852       0.00025129
C        3.03066731       5.24775093      10.00111484        2       0.00012414      -0.00016981       0.00142816
Ti       3.03018494       6.99812577       8.69119134        0       0.00043200      -0.00043763      -0.00379103
Ti       4.54375800       6.12206840      11.30748757        0       0.00019833      -0.00049705       0.00189857
O        3.02999446       6.99663619      12.23008024        3      -0.00001351      -0.00082633       0.11799250
O        4.54649324       6.12376905       7.77065666        1       0.00025304      -0.00007708       0.00014605
C        1.51644645       7.87108481      10.00309021        2      -0.00038938      -0.00027419       0.00242365
Ti       1.51444800       9.62101667       8.69482263        0       0.00057049       0.00011094      -0.00430836
Ti       3.02911985       8.74601793      11.30855718        0       0.00011005      -0.00132224       0.00268148
O        1.51426069       9.61979182      12.23008024        3      -0.00007693      -0.00042247       0.12507026
O        3.02945818       8.74766412       7.77105614        1      -0.00010570      -0.00006776       0.00057977
C        9.09008612      -0.00019660      10.00272178        2      -0.00000729      -0.00038432       0.00156518
Ti       9.08959494       1.74956788       8.69022325        0       0.00047487      -0.00024833      -0.00459400
Ti      10.60573401       0.87445849      11.30928226        0       0.00018268      -0.00029668       0.00233186
O        9.09017261       1.74963177      12.23008024        3       0.00016230       0.00001345       0.07930583
O       10.60542746       0.87450652       7.77078764        1       0.00018292      -0.00011338       0.00024600
C        7.57557085       2.62380992      10.00164457        2      -0.00009939       0.00005233       0.00207802
Ti       7.57525635       4.37317120       8.69408023        0       0.00022337      -0.00028573      -0.00452887
Ti       9.09111208       3.49950271      11.30918222        0      -0.00032744       0.00021860       0.00314530
O        7.57393094       4.37102759      12.23008024        3      -0.00033597       0.00017378       0.13496555
O        9.09062367       3.49979193       7.77165181        1       0.00025822      -0.00008451       0.00071609
C        6.05946478       5.24774135      10.00256941        2       0.00044396       0.00047048       0.00169955
Ti       6.06027602       6.99762612       8.69631282        0      -0.00004310      -0.00020741      -0.00458377
Ti       7.57346321       6.12234563      11.31460179        0       0.00007776       0.00013466       0.00482824
O        6.05723194       6.99511909      12.23008024        3       0.00072044       0.00004370       0.10368824
O        7.57703848       6.12465175       7.77551493        1       0.00072881      -0.00006571       0.00133744
C        4.54497805       7.87211681      10.00258901        2       0.00059848      -0.00037092       0.00208240
Ti       4.54543663       9.62136661       8.69180143        0      -0.00013599       0.00003108      -0.00453649
Ti       6.06004263       8.74551157      11.31209462        0      -0.00013853      -0.00018556       0.00381406
O        4.54412978       9.62084953      12.23008024        3       0.00007612      -0.00053912       0.08193039
O        6.06295532       8.74708599       7.77486960        1       0.00025977       0.00018087       0.00074186
C        0.04060693       0.07020971      17.33098465       10      -0.00160423      -0.00047402       0.00128564
C        1.24958946       0.77089857      17.31569260       10      -0.00160167      -0.00080333      -0.00363982
C       -1.16992359       2.16847458      17.33630535       10       0.00214699      -0.00264879      -0.01102383
C        0.04213768       2.86826310      17.31859492       10       0.00112148      -0.00303625      -0.00594028
C       -2.38132595       4.26522495      17.33098465       10      -0.00024834      -0.00305441      -0.02070670
C       -1.16980293       4.96214596      17.31569260       10      -0.00065556      -0.00201769      -0.02863545
C       -3.58635098       6.36745651      17.26787390       10      -0.00252932      -0.00156303       0.01023780
C       -2.38039797       7.04938486      17.22605168       10      -0.00317027       0.00000262      -0.13569354
C       -4.80134771       8.47068510      17.26787390       10       0.00234589       0.00043972       0.01787986
C       -3.60808650       9.17418070      17.22605168       10       0.00259880       0.00072430      -0.12253082
C        2.46464858       0.06305302      17.26787390       10      -0.00228377       0.00086909       0.01901367
C        3.67928517       0.76757361      17.23579522       10      -0.00334228       0.00047626      -0.06635867
C        1.25459355       2.16900956      17.30464963       10       0.00064802      -0.00197758      -0.00784371
C        2.46602861       2.86686193      17.28273522       10       0.00021072      -0.00121301      -0.03300800
C        0.04320241       4.26736979      17.30464963       10      -0.00034068      -0.00288955      -0.03038493
C        1.25340224       4.96744771      17.28273522       10      -0.00165114      -0.00022421      -0.03575161
C       -1.17514091       6.36768795      17.26787390       10      -0.00355447      -0.00023687       0.01938948
C        0.04262360       7.06681328      17.23579522       10      -0.00340290       0.00158049      -0.07604350
C       -2.38091090       8.46578475      16.77324602       10      -0.00015820       0.00073402      -0.20973978
C       -1.15409641       9.17376027      17.22605168       10      -0.00053408       0.00019319      -0.13296413
C        4.89361791       0.06287127      17.26787390       10      -0.00276535       0.00160021       0.01201206
C        6.10825320       0.77038293      17.31569260       10      -0.00085326      -0.00017344      -0.01445148
C        3.67922531       2.16427991      17.26812893       10       0.00019537      -0.00023534      -0.02750782
C        4.89199324       2.86645528      17.28273522       10       0.00119897      -0.00035656      -0.01909075
C        2.46761654       4.26753473      17.28005361       10      -0.00178262      -0.00089589      -0.04132582
C        3.67930437       4.96712996      17.27505284       10      -0.00244437       0.00036086      -0.02966553
C        1.25183754       6.36850842      17.26812893       10      -0.00312395       0.00171393      -0.02543899
C        2.46598904       7.06770979      17.28273522       10      -0.00142001       0.00162990      -0.03632066
C        0.03884476       8.47076100      17.26787390       10       0.00094500       0.00233071       0.02311420
C        1.25872264       9.16876678      17.31569260       10       0.00392444       0.00093157      -0.02715516
C        7.31667970       0.07012227      17.33098465       10       0.00176365       0.00251713      -0.01454648
C        8.52869585       0.76965744      17.33792317       10       0.00128746       0.00237143      -0.03067485
C        6.10325846       2.16893930      17.30464963       10       0.00221588      -0.00026407      -0.02621785
C        7.31539829       2.86747932      17.31859492       10       0.00181112       0.00047173      -0.01730819
C        4.89183716       4.26712586      17.28005361       10      -0.00226628       0.00078430      -0.03857467
C        6.10507044       4.96679433      17.28273522       10      -0.00320077       0.00228613      -0.01784398
C        3.67943722       6.36619084      17.28005361       10      -0.00271871       0.00068422      -0.03327417
C        4.89170494       7.06752936      17.28273522       10      -0.00234391       0.00115429      -0.03634221
C        2.46700033       8.46561278      17.30464963       10       0.00461912       0.00179769      -0.02389280
C        3.67813727       9.16588146      17.31859492       10       0.00453993       0.00111725      -0.00858566
C        9.73835965       0.06916863      17.33630535       10       0.00015330       0.00149920      -0.01997672
C       10.94810822       0.77016437      17.33792317       10       0.00058465      -0.00054394      -0.00403193
C        8.52654731       2.16813834      17.33630535       10       0.00220473       0.00079417      -0.02196064
C        9.73856136       2.86562497      17.33792317       10       0.00188043      -0.00159855      -0.03167243
C        7.31479601       4.26665293      17.30464963       10      -0.00322240       0.00065710      -0.01979851
C        8.52823909       4.96172232      17.31569260       10      -0.00209684      -0.00132739      -0.01386247
C        6.10685327       6.36805618      17.26812893       10      -0.00306818       0.00232062      -0.03413827
C        7.31615415       7.06655277      17.23579522       10      -0.00214478       0.00101733      -0.06704803
C        4.89007092       8.46554461      17.30464963       10       0.00299014       0.00078772      -0.01731356
C        6.09808152       9.16912996      17.31569260       10       0.00410816      -0.00012646      -0.00471607
O       -2.37299201       8.46440362      15.44617497       11      -0.00068928       0.00075415      -0.00027269
