130
Lattice="12.12 0.0 0.0 -6.06 10.496227893867395 0.0 0.0 0.0 40.0" Properties=species:S:1:pos:R:3:tags:I:1:forces:R:3 energy=-1200.1694118322569 stress="0.002807866119956417 5.5956419428443975e-08 -3.3705786116839846e-08 5.5956419428443975e-08 0.002807794259105032 -9.88189074878265e-08 -3.3705786116839846e-08 -9.88189074878265e-08 0.002040842149038504" pbc="T T F"
C        0.00003071       0.00003089      10.00175524        2      -0.00005338       0.00002212      -0.00432111
Ti      -0.00000272       1.74941408       8.69039494        0      -0.00001066       0.00012203      -0.00101750
Ti       1.51483144       0.87456844      11.31018858        0      -0.00011565      -0.00003857      -0.00355344
O       -0.00002087       1.74948878      12.23008024        3       0.00001918      -0.00008432       0.08987915
O        1.51500572       0.87468580       7.77001461        1       0.00003927      -0.00000591      -0.00468120
C       -1.51501762       2.62393915      10.00154949        2       0.00007101      -0.00010947      -0.00401538
Ti      -1.51501715       4.37341737       8.69063473        0      -0.00002694       0.00006197      -0.00004950
Ti       0.00004299       3.49862039      11.31034230        0       0.00002576      -0.00003304      -0.00334082
O       -1.51481867       4.37231321      12.23008024        3      -0.00006679      -0.00001554       0.12857348
O       -0.00001014       3.49885896       7.77016766        1      -0.00002645       0.00031081      -0.00419434
C       -3.03004347       5.24809635      10.00189345        2      -0.00008464      -0.00003721      -0.00368909
Ti      -3.03003580       6.99746666       8.69063156        0      -0.00001577      -0.00006892      -0.00004103
Ti      -1.51522085       6.12268294      11.31063614        0      -0.00020763      -0.00005285      -0.00281302
O       -3.03096758       6.99824554      12.23008024        3       0.00005087      -0.00005030       0.12922325
O       -1.51497379       6.12281984       7.77022093        1       0.00012213       0.00007004      -0.00372034
C       -4.54510931       7.87216580      10.00151847        2       0.00000489       0.00008620      -0.00402152
Ti      -4.54495320       9.62151266       8.69041769        0       0.00013664      -0.00009025      -0.00095850
Ti      -3.03008354       8.74693757      11.31034922        0      -0.00000489       0.00008181      -0.00330584
O       -4.54488481       9.62141614      12.23008024        3      -0.00003769       0.00000582       0.09624523
O       -3.02989297       8.74678067       7.77017982        1       0.00025404      -0.00018462      -0.00417972
C        3.02987069       0.00007646      10.00151491        2       0.00002968      -0.00002808      -0.00404521
Ti       3.02996079       1.74933837       8.69046871        0      -0.00002171      -0.00003031      -0.00065299
Ti       4.54478682       0.87473775      11.31037565        0      -0.00002026       0.00013786      -0.00329548
O        3.02958623       1.74905561      12.23008024        3      -0.00023843      -0.00015477       0.12042833
O        4.54507515       0.87464353       7.77014916        1       0.00010167      -0.00007225      -0.00413906
C        1.51499010       2.62390071      10.00154200        2      -0.00002879      -0.00000085      -0.00406395
Ti       1.51501191       4.37344059       8.69061060        0      -0.00000006       0.00010048      -0.00008605
Ti       3.02989318       3.49848442      11.31037231        0      -0.00000155      -0.00015484      -0.00330474
O        1.51504049       4.37236734      12.23008024        3      -0.00006647      -0.00005079       0.12965854
O        3.03000572       3.49881724       7.77013845        1       0.00000468       0.00013646      -0.00414321
C        0.00000502       5.24821475      10.00205730        2      -0.00000405      -0.00009868      -0.00357262
Ti      -0.00000950       6.99747370       8.69055841        0      -0.00003827      -0.00004207       0.00017389
Ti       1.51521143       6.12273822      11.31063873        0       0.00004454       0.00001730      -0.00277825
O       -0.00016944       6.99711789      12.23008024        3      -0.00013872       0.00009545       0.16067158
O        1.51496254       6.12283281       7.77019876        1      -0.00013340       0.00014109      -0.00375075
C       -1.51486959       7.87211589      10.00212588        2      -0.00014214       0.00003682      -0.00359489
Ti      -1.51498199       9.62155570       8.69060512        0       0.00008489      -0.00003674      -0.00012114
Ti       0.00003221       8.74697892      11.31069530        0       0.00000762       0.00011374      -0.00274741
O       -1.51603008       9.62223914      12.23008024        3       0.00008188      -0.00005353       0.13243228
O        0.00000389       8.74680526       7.77019405        1       0.00004848      -0.00020844      -0.00372881
C        6.06001473      -0.00007069      10.00187207        2      -0.00003880       0.00014732      -0.00377327
Ti       6.05998203       1.74937440       8.69048376        0      -0.00003084       0.00000581      -0.00021824
Ti       7.57506604       0.87485331      11.31044955        0       0.00010258       0.00012335      -0.00326384
O        6.05963484       1.74856773      12.23008024        3       0.00013984       0.00010886       0.13681621
O        7.57493510       0.87466865       7.77015377        1      -0.00010391      -0.00004954      -0.00403038
C        4.54513347       2.62415107      10.00171886        2      -0.00016067      -0.00012474      -0.00376838
Ti       4.54497441       4.37340840       8.69044435        0      -0.00004300      -0.00004981      -0.00021408
Ti       6.05994543       3.49873728      11.31060101        0       0.00009071      -0.00000923      -0.00305525
O        4.54393850       4.37338454      12.23008024        3       0.00018214      -0.00019309       0.14090542
O        6.06002204       3.49875311       7.77008401        1      -0.00000778       0.00005678      -0.00394733
C        3.03001067       5.24814415      10.00182157        2       0.00003265      -0.00006807      -0.00363001
Ti       3.03004628       6.99745828       8.69059619        0       0.00002956      -0.00008834      -0.00006916
Ti       4.54522017       6.12279994      11.31046266        0       0.00012724      -0.00013039      -0.00316355
O        3.03115002       6.99806301      12.23008024        3       0.00003972      -0.00001832       0.13147334
O        4.54496575       6.12275666       7.77014051        1      -0.00004536      -0.00010638      -0.00403241
C        1.51487881       7.87211898      10.00217394        2       0.00011907       0.00002640      -0.00345455
Ti       1.51499729       9.62158612       8.69059708        0      -0.00008573       0.00002108      -0.00012066
Ti       3.03008325       8.74691351      11.31037400        0       0.00002376      -0.00000195      -0.00326153
O        1.51610588       9.62234035      12.23008024        3      -0.00006627       0.00000537       0.13367877
O        3.02989790       8.74679797       7.77017608        1      -0.00030838      -0.00018285      -0.00411571
C        9.09005838       0.00009292      10.00152243        2       0.00008636      -0.00004797      -0.00402957
Ti       9.09004802       1.74932314       8.69051873        0       0.00003630      -0.00004619      -0.00054291
Ti      10.60519729       0.87454545      11.31019634        0       0.00013311      -0.00010039      -0.00352802
O        9.09064366       1.74884572      12.23008024        3       0.00001571      -0.00006486       0.12626117
O       10.60496512       0.87468804       7.77004759        1      -0.00006217       0.00000462      -0.00460654
C        7.57484336       2.62415569      10.00189032        2       0.00012977      -0.00008374      -0.00382807
Ti       7.57501720       4.37342095       8.69043846        0       0.00003327      -0.00001909      -0.00021472
Ti       9.09005024       3.49848621      11.31045886        0       0.00004995      -0.00016514      -0.00323957
O        7.57581681       4.37361897      12.23008024        3      -0.00002801      -0.00010829       0.14749605
O        9.08996754       3.49881109       7.77016312        1      -0.00002198       0.00009795      -0.00399787
C        6.06000138       5.24794406      10.00196851        2       0.00001085       0.00010866      -0.00362238
Ti       6.05999603       6.99756777       8.69050781        0      -0.00001151       0.00008311      -0.00049180
Ti       7.57479746       6.12288158      11.31047070        0      -0.00017827      -0.00000871      -0.00311483
O        6.05994445       6.99854818      12.23008024        3      -0.00008431       0.00012373       0.13028616
O        7.57504305       6.12273497       7.77015786        1       0.00003474      -0.00009970      -0.00399625
C        4.54510957       7.87215670      10.00152373        2       0.00000032       0.00004101      -0.00406741
Ti       4.54493676       9.62151028       8.69046312        0      -0.00016012      -0.00010692      -0.00085552
Ti       6.05998488       8.74714439      11.31020590        0       0.00002583       0.00015461      -0.00357100
O        4.54487836       9.62143992      12.23008024        3       0.00005091      -0.00002031       0.10316068
O        6.05998448       8.74682504       7.77005411        1       0.00000190      -0.00007135      -0.00458312
C        0.04479880       0.06743139      17.49161870       10       0.00543914       0.00200015      -0.03810338
C        1.25720168       0.76736287      17.49161870       10       0.00003229       0.00014340      -0.04219987
C       -1.16728382       2.16715315      17.49161870       10       0.00015538       0.00037454      -0.04648764
C        0.04501753       2.86702826      17.49161870       10      -0.00081088       0.00122025      -0.04959115
C       -2.37927194       4.26611638      17.49161870       10       0.00080484      -0.00064818      -0.03511266
C       -1.16694091       4.96607791      17.49161870       10      -0.00036686       0.00030134      -0.02381377
C       -3.59117113       6.36509409      17.49161870       10       0.00127147      -0.00064756      -0.03707830
C       -2.37878469       7.06499549      17.49161870       10       0.00061372      -0.00097837      -0.02223980
C       -4.80278319       8.46408975      17.49161870       10       0.00327694      -0.00014441      -0.04594046
C       -3.59041493       9.16396132      17.49161870       10      -0.00353944      -0.00170812      -0.04940001
C        2.46936172       0.06744919      17.49161870       10       0.00234641       0.00160838      -0.04514693
C        3.68123374       0.76729539      17.49161870       10       0.00326692       0.00090951      -0.03826025
C        1.25727862       2.16711499      17.49161870       10       0.00005936       0.00185263      -0.04569819
C        2.46927275       2.86682090      17.49161870       10      -0.00025439       0.00051488      -0.03899872
C        0.04497817       4.26615727      17.49161870       10       0.00048473       0.00097823      -0.04256349
C        1.25694885       4.96613690      17.49161870       10       0.00049793       0.00031442      -0.02153527
C       -1.16716665       6.36522119      17.49161870       10       0.00158915       0.00068048      -0.05303847
C        0.04493819       7.06508612      17.49161870       10       0.00131236      -0.00067888       0.00884305
C       -2.37884831       8.46444125      17.49161870       10      -0.00034865       0.00047396      -0.04452685
C       -1.16671078       9.16413018      17.49161870       10       0.00018197      -0.00025339      -0.01582634
C        4.89303043       0.06774139      17.49161870       10       0.00171648      -0.00011811      -0.04082904
C        6.10494564       0.76700731      17.49161870       10       0.00117751       0.00060295      -0.05126637
C        3.68154625       2.16706988      17.49161870       10      -0.00048102       0.00073098      -0.03771918
C        4.89312482       2.86655622      17.49161870       10      -0.00100458       0.00021423      -0.05169662
C        2.46924762       4.26613023      17.49161870       10       0.00015264      -0.00001598      -0.03731112
C        3.68081828       4.96596141      17.49161870       10      -0.00014746      -0.00000447      -0.05242049
C        1.25701404       6.36528851      17.49161870       10       0.00099201      -0.00018257      -0.05200894
C        2.46878000       7.06502980      17.49161870       10       0.00046245      -0.00071823      -0.01510987
C        0.04508580       8.46463479      17.49161870       10      -0.00117572      -0.00058348      -0.05101028
C        1.25695929       9.16414901      17.49161870       10      -0.00173362       0.00012879      -0.01107319
C        7.31686705       0.06776996      17.49161870       10      -0.00015915       0.00027354      -0.04478776
C        8.52863833       0.76729364      17.49161870       10       0.00039144      -0.00042590      -0.03737726
C        6.10511715       2.16686175      17.49161870       10      -0.00130474       0.00071684      -0.00424990
C        7.31705567       2.86658035      17.49161870       10      -0.00155981      -0.00065260      -0.05142837
C        4.89311668       4.26609222      17.49161870       10      -0.00049087      -0.00029513       0.00049377
C        6.10501678       4.96586733      17.49161870       10      -0.00048676      -0.00095633      -0.05067922
C        3.68115399       6.36513431      17.49161870       10       0.00022754      -0.00052552      -0.04325252
C        4.89284085       7.06495936      17.49161870       10      -0.00006975      -0.00181837      -0.03864336
C        2.46910335       8.46452516      17.49161870       10      -0.00326953      -0.00088513      -0.04779405
C        3.68061313       9.16403324      17.49161870       10      -0.00235595      -0.00152127      -0.04873102
C        9.74040492       0.06751421      17.49161870       10       0.00362518       0.00182181      -0.04366745
C       10.95260932       0.76738525      17.49161870       10      -0.00322179       0.00025071      -0.04412309
C        8.52861444       2.16706283      17.49161870       10      -0.00056107       0.00102300      -0.03080379
C        9.74087406       2.86676099      17.49161870       10      -0.00123288       0.00064955      -0.03923914
C        7.31698798       4.26610033      17.49161870       10       0.00035139      -0.00028319       0.00549964
C        8.52921403       4.96592798      17.49161870       10      -0.00082885       0.00064014      -0.05369435
C        6.10497928       6.36493028      17.49161870       10       0.00081139      -0.00118100      -0.02489986
C        7.31709888       7.06488117      17.49161870       10      -0.00011396      -0.00027416      -0.03965976
C        4.89286006       8.46416578      17.49161870       10      -0.00001756      -0.00005832      -0.04370250
C        6.10510753       9.16390794      17.49161870       10      -0.00540743      -0.00184698      -0.04512517
