132
Lattice="12.12 0.0 0.0 -6.06 10.496227893867395 0.0 0.0 0.0 40.0" Properties=species:S:1:pos:R:3:tags:I:1:forces:R:3 stress="0.00280335992444071 -7.536954714925636e-06 7.805084382559693e-06 -7.536954714925636e-06 0.0027809045614606196 -4.468036965076095e-06 7.805084382559693e-06 -4.468036965076095e-06 0.0028013370385798608" energy=-1209.729292878298 pbc="T T F"
C        0.00094241      -0.00092265       9.98558338        2       0.00109823      -0.00086847       0.00215597
Ti      -0.00056361       1.75461051       8.70338285        0       0.00376287       0.00058286      -0.00117523
Ti       1.52115060       0.87894271      11.30624248        0       0.00032690       0.00040652       0.00106658
O        0.00224853       1.74548887      12.23008024        3       0.00193069       0.00254924      -0.07848895
O        1.51101791       0.87990724       7.77632000        1       0.00316115      -0.00287936       0.00206677
C       -1.51470020       2.62819743      10.00945458        2       0.00013117      -0.00056222      -0.00096244
Ti      -1.51018732       4.38343688       8.70810957        0       0.00183075      -0.00041582       0.00016712
Ti      -0.00755396       3.50107427      11.31178049        0      -0.00070814       0.00394887      -0.00146457
O       -1.48725383       4.41586806      12.23008024        3      -0.00507622      -0.00522690      -0.45212454
O       -0.00340984       3.50189600       7.78096774        1       0.00039103      -0.00077877      -0.00098910
C       -3.02833031       5.25425817       9.99797389        2      -0.00021492       0.00177841      -0.00310185
Ti      -3.03075177       7.00145781       8.70105702        0       0.00176372      -0.00029118       0.00021830
Ti      -1.51024902       6.14097852      11.29035917        0       0.00210419      -0.00394033       0.00337229
O       -3.03123892       7.00960376      12.23008024        3       0.00059934       0.00058083      -0.02283102
O       -1.51768013       6.12552221       7.77581516        1       0.00188885      -0.00032205      -0.00083046
C       -4.54581434       7.87697963       9.98676104        2      -0.00116052       0.00150997       0.00074210
Ti      -4.54703406       9.62580644       8.69862126        0       0.00083572      -0.00256847      -0.00312658
Ti      -3.03358914       8.75036942      11.31346840        0       0.00254788       0.00436765       0.00003941
O       -4.54950352       9.62624388      12.23008024        3       0.00135005      -0.00152569      -0.05792757
O       -3.03257902       8.74860325       7.77434926        1      -0.00035467      -0.00085575       0.00061870
C        3.02933420       0.00354990       9.98810207        2       0.00068262      -0.00293482       0.00155947
Ti       3.02793136       1.75446132       8.69824899        0       0.00100541      -0.00208635      -0.00037009
Ti       4.54575821       0.88261788      11.30898434        0       0.00315564      -0.00037931      -0.00005342
O        3.02769689       1.75335185      12.23008024        3      -0.00094013      -0.00154903      -0.03195600
O        4.54438299       0.88055122       7.77335219        1       0.00121137      -0.00283291       0.00206419
C        1.51581297       2.62785045       9.98757486        2       0.00410072      -0.00211281      -0.00134832
Ti       1.51484148       4.37653034       8.70047082        0       0.00225425      -0.00100195      -0.00316803
Ti       3.02963231       3.50467455      11.31126087        0       0.00085165      -0.00295453      -0.00151112
O        1.51784178       4.37619551      12.23008024        3       0.00293298       0.00076208      -0.02501809
O        3.02997741       3.50277137       7.77532227        1       0.00174167      -0.00201322      -0.00020694
C        0.00299208       5.25825362       9.98387542        2      -0.00034416       0.00146228      -0.00081509
Ti       0.00159883       7.00050947       8.69687806        0       0.00100310       0.00121556      -0.00360598
Ti       1.51488368       6.12427536      11.31458315        0      -0.00165851       0.00123464       0.00250032
O        0.00621653       7.00517505      12.23008024        3      -0.00209304      -0.00215041      -0.05059789
O        1.51553278       6.12473883       7.77468996        1       0.00089192      -0.00023687       0.00009108
C       -1.51524226       7.88230660       9.98582544        2       0.00291397       0.00242300       0.00032783
Ti      -1.51629891       9.62546960       8.69097895        0      -0.00109037      -0.00522845      -0.00219713
Ti       0.00473717       8.75261200      11.31229631        0       0.00061460       0.00079535       0.00158286
O       -1.51778829       9.62589765      12.23008024        3       0.00161452       0.00067900      -0.06185250
O       -0.00329564       8.74959524       7.77027199        1       0.00414055       0.00190618       0.00035878
C        6.05184451      -0.00201224       9.98535266        2       0.00155175      -0.00061387       0.00169982
Ti       6.05667381       1.75376360       8.70276755        0      -0.00085182      -0.00154588      -0.00200843
Ti       7.56413926       0.86925911      11.28156610        0      -0.00355762      -0.00366714      -0.00216602
O        6.05819685       1.74640201      12.23008024        3      -0.00041896       0.00434791      -0.00639532
O        7.57421451       0.87881911       7.77401271        1      -0.00040539       0.00176887       0.00141586
C        4.54301194       2.62562049       9.98552459        2       0.00000135      -0.00043943      -0.00044719
Ti       4.54521550       4.37553070       8.69898109        0      -0.00036055      -0.00186199      -0.00252563
Ti       6.06499985       3.49536604      11.30510726        0       0.00050094       0.00287141      -0.00166400
O        4.54548339       4.37473556      12.23008024        3       0.00044908      -0.00173329      -0.04539170
O        6.06204723       3.50160122       7.77697341        1      -0.00006180      -0.00173067       0.00166109
C        3.03219146       5.25017149       9.98661552        2       0.00165177       0.00000909       0.00051792
Ti       3.03193659       6.99722720       8.69854967        0       0.00130059       0.00071334       0.00072743
Ti       4.54728781       6.12246054      11.30362546        0       0.00138237      -0.00104913       0.00278362
O        3.03197990       6.99912187      12.23008024        3       0.00066782       0.00187138      -0.06212509
O        4.54709895       6.12354407       7.77345006        1       0.00059348      -0.00026251       0.00168055
C        1.51516652       7.87593873       9.98357818        2       0.00095388      -0.00036179       0.00085890
Ti       1.51560347       9.61792470       8.69509663        0       0.00135005       0.00078785      -0.00130459
Ti       3.03060580       8.75028282      11.30510257        0       0.00294732       0.00220074       0.00228636
O        1.51875997       9.62293655      12.23008024        3       0.00092165      -0.00180933      -0.03864311
O        3.03000199       8.74597495       7.76926096        1       0.00127579      -0.00162985       0.00128707
C        9.08751972      -0.00679939       9.97615950        2       0.00189566      -0.00023089      -0.00272794
Ti       9.08436685       1.74509032       8.69009524        0       0.00129591      -0.00013160      -0.00142180
Ti      10.61630031       0.87465303      11.28683794        0       0.00444872       0.00254450      -0.00383912
O        9.08244989       1.69639259      12.23008024        3       0.00887485      -0.00196294      -0.27963984
O       10.60312288       0.88094861       7.77689881        1       0.00405846       0.00362229       0.00087007
C        7.57653730       2.62427490       9.99538908        2       0.00155678       0.00145320       0.00164698
Ti       7.57043320       4.37665801       8.70465853        0       0.00083929       0.00016367      -0.00260190
Ti       9.11702512       3.51685932      11.34760635        0       0.00480333       0.00304033      -0.00454050
O        7.57418765       4.37540232      12.23008024        3       0.00564891       0.00021901      -0.03843555
O        9.09207481       3.50083267       7.79452657        1       0.00205499      -0.00239158      -0.00018553
C        6.06254306       5.24866942       9.98917029        2       0.00133836       0.00039587       0.00210037
Ti       6.06050373       6.99971647       8.69793255        0      -0.00038579      -0.00018893      -0.00373676
Ti       7.57750170       6.12652005      11.30563892        0       0.00153852       0.00137171      -0.00208707
O        6.06089247       7.00224530      12.23008024        3       0.00354181      -0.00204406      -0.03046022
O        7.57711141       6.12270081       7.77851062        1       0.00051868       0.00287970      -0.00056435
C        4.54573562       7.87270078       9.98444986        2       0.00089805       0.00036329       0.00055321
Ti       4.54283053       9.62026579       8.69364831        0       0.00074607       0.00083659      -0.00222394
Ti       6.05491443       8.74571524      11.31232965        0      -0.00017789      -0.00303388       0.00247306
O        4.54636720       9.62264794      12.23008024        3       0.00183148       0.00304879      -0.04302154
O        6.06093492       8.74790379       7.77325123        1       0.00039680      -0.00085276      -0.00015721
C        0.06387029       0.06736138      15.88471585       10      -0.00312020      -0.00015332      -0.02196604
C        1.26863742       0.77211368      15.89310408       10      -0.00164540       0.00116785      -0.02243463
C       -1.13290148       2.15564683      15.86034518       10      -0.00188964       0.00318253       0.33902618
C        0.05715304       2.86903288      15.86798392       10      -0.00237692       0.00069965       0.07464664
C       -2.36971994       4.31127349      15.86033963       10      -0.00059835      -0.00187970       0.74515711
C       -1.15883964       4.97884235      15.86798136       10      -0.00276525      -0.00127601       0.06628173
C       -3.58266964       6.38410775      15.88471530       10      -0.00249504      -0.00172954       0.01820271
C       -2.36999992       7.07620910      15.89310388       10      -0.00198134      -0.00147037       0.01894276
C       -4.79223987       8.47167479      15.88282291       10      -0.00283316       0.00053850       0.00310118
C       -3.58146432       9.17197816      15.89411257       10      -0.00065443       0.00226893      -0.00382799
C        2.48147824       0.07256869      15.89513759       10      -0.00110875       0.00184642       0.00525754
C        3.68986921       0.77334069      15.89411248       10      -0.00169257      -0.00006888       0.01373062
C        1.27394358       2.16769392      15.88471606       10      -0.00276208       0.00099285      -0.00092032
C        2.48013983       2.87182615      15.87565593       10      -0.00153928      -0.00015589       0.01546763
C        0.05807632       4.27425310      15.84185604       10      -0.00559313      -0.00133181       0.02096957
C        1.26639303       4.97140035      15.85352599       10      -0.00643869      -0.00079430      -0.00582174
C       -1.15759060       6.38321345      15.88471530       10      -0.00200966      -0.00187773       0.01414030
C        0.05537869       7.07421853      15.87565603       10      -0.00284635       0.00027113       0.03383478
C       -2.36901611       8.47523904      15.89513780       10      -0.00214752      -0.00025831       0.02382856
C       -1.15844789       9.17207389      15.89411257       10      -0.00344171       0.00090710       0.01082377
C        4.89897246       0.07283044      15.89513759       10      -0.00346749       0.00027320       0.02042294
C        6.11056964       0.77234134      15.89310408       10      -0.00346484      -0.00034893       0.03841518
C        3.68944099       2.17180367      15.88282278       10      -0.00160097      -0.00138497       0.01682453
C        4.89912291       2.87266834      15.87565593       10      -0.00195921      -0.00017973       0.05984957
C        2.47936728       4.27057534      15.86177243       10      -0.00344934       0.00168195       0.02786149
C        3.69068689       4.97225462      15.85898457       10      -0.00230994       0.00396789       0.03420152
C        1.26637306       6.37247766      15.86177233       10      -0.00256357       0.00007539       0.03803373
C        2.47969739       7.07081931      15.85898446       10      -0.00092573      -0.00060364       0.01552934
C        0.05340368       8.47157684      15.88282291       10      -0.00348954       0.00100342       0.01858122
C        1.26479033       9.16785618      15.87565578       10      -0.00175332      -0.00030977       0.02981477
C        7.31565368       0.06727259      15.88471585       10      -0.00189467       0.00109101       0.01841115
C        8.53086530       0.76906623      15.86798373       10      -0.00037369       0.00218887       0.10825101
C        6.10371427       2.16834645      15.88471606       10      -0.00111699      -0.00025401       0.02814002
C        7.31975613       2.87029863      15.86798392       10       0.00052069      -0.00056360       0.08674553
C        4.90220600       4.27086827      15.86177243       10      -0.00227992       0.00142129       0.04479565
C        6.11451576       4.97219218      15.85352599       10      -0.00094810       0.00045949       0.02292587
C        3.69118680       6.37120128      15.85590657       10      -0.00051560       0.00316722       0.01529602
C        4.90241077       7.07106662      15.85898446       10      -0.00194580       0.00081016       0.01877488
C        2.47676151       8.47036109      15.86177216       10      -0.00168253      -0.00156575       0.03216127
C        3.69089673       9.17021758      15.85352558       10      -0.00186428      -0.00115059      -0.01968617
C        9.75048083       0.06791560      15.84185599       10      -0.00153506      -0.00034147      -0.02780275
C       10.96806014       0.77002711      15.86798373       10      -0.00065527       0.00301321       0.04632238
C        8.50562989       2.15428810      15.86034518       10       0.00278774       0.00286642       0.38547981
C        9.74475381       2.87192244      15.61598592       10       0.00294899       0.00394153      -1.28789733
C        7.32276426       4.27615540      15.84185604       10      -0.00020744      -0.00053277       0.03159083
C        8.53898859       4.98150296      15.86798136       10       0.00029316      -0.00172873       0.12492069
C        6.11502582       6.37289949      15.86177233       10      -0.00363091       0.00049830       0.03536628
C        7.32530064       7.07443806      15.87565603       10      -0.00330564      -0.00085896       0.02710836
C        4.90418736       8.47056641      15.86177216       10      -0.00316091      -0.00186836       0.01908484
C        6.11613296       9.16815950      15.87565578       10      -0.00300257      -0.00023257      -0.01824092
O        9.76300203       2.97801389      14.13429885       11      -0.00403813      -0.00376124      -0.00404792
H        9.43195372       2.15972808      13.66810648       12       0.00571879       0.00089184       0.00686907
