132
Lattice="12.12 0.0 0.0 -6.06 10.496227893867395 0.0 0.0 0.0 40.0" Properties=species:S:1:pos:R:3:tags:I:1:forces:R:3 stress="0.0028504433876980805 -1.2884137351281478e-06 -3.435276868593416e-06 -1.2884137351281478e-06 0.00282992534247489 -6.412071612234503e-06 -3.435276868593416e-06 -6.412071612234503e-06 0.0027056173245722298" energy=-1210.5402779026144 pbc="T T F"
C        0.00036926      -0.00125675      10.00379239        2      -0.00115842      -0.00087131       0.00020650
Ti       0.00290723       1.75063227       8.71878355        0      -0.00076743      -0.00072247       0.00184352
Ti       1.51349500       0.87781169      11.31001962        0       0.00068609      -0.00015432       0.00091890
O        0.00074116       1.74383497      12.23008024        3      -0.00152826       0.00096083      -0.17722207
O        1.51352480       0.87644755       7.78011744        1      -0.00156049      -0.00084128      -0.00139937
C       -1.51669402       2.62693719      10.01890329        2      -0.00000404       0.00007275      -0.00345577
Ti      -1.51149073       4.37375373       8.72219190        0      -0.00091044      -0.00109619      -0.00128354
Ti      -0.00517815       3.50254857      11.32247729        0      -0.00003673      -0.00090347       0.00080458
O       -1.48867541       4.41512204      12.23008024        3       0.00032054      -0.00191587      -0.68595480
O       -0.00195554       3.49803384       7.78277561        1      -0.00044005      -0.00207552      -0.00085635
C       -3.02875815       5.24274641      10.01461007        2       0.00126980       0.00091228       0.00134764
Ti      -3.02799337       6.99974597       8.71882758        0      -0.00217045      -0.00248877       0.00127532
Ti      -1.51022960       6.12581476      11.31170062        0      -0.00072390       0.00023380       0.00159389
O       -3.03169453       7.00450473      12.23008024        3       0.00029109      -0.00186748      -0.11230533
O       -1.51620997       6.12005080       7.78184157        1      -0.00080100      -0.00046618       0.00018822
C       -4.54361671       7.87249764      10.00345013        2      -0.00132729      -0.00030573       0.00061192
Ti      -4.54347064       9.62182920       8.71723567        0      -0.00289893      -0.00135344      -0.00131768
Ti      -3.03053040       8.74904298      11.30336553        0       0.00052435       0.00090558       0.00173819
O       -4.54558409       9.62204186      12.23008024        3      -0.00145773      -0.00087748      -0.13502740
O       -3.03077865       8.74511554       7.77672450        1       0.00096248      -0.00411858      -0.00043723
C        3.03048546       0.00016815      10.00185963        2       0.00013044      -0.00059946      -0.00137175
Ti       3.03096297       1.74935787       8.71655642        0       0.00054271      -0.00248477      -0.00121402
Ti       4.54212922       0.87525799      11.30254712        0      -0.00037375      -0.00068970       0.00234202
O        3.03041186       1.74882649      12.23008024        3       0.00048349       0.00014706      -0.12942867
O        4.54571419       0.87706004       7.77620903        1       0.00043826      -0.00066032       0.00101297
C        1.51554041       2.62423568      10.00758124        2       0.00011349      -0.00031518      -0.00193992
Ti       1.51574782       4.37363733       8.71922524        0       0.00103262       0.00005110       0.00047001
Ti       3.03001560       3.49899200      11.30220128        0      -0.00127952       0.00046041       0.00020440
O        1.52105889       4.37628638      12.23008024        3       0.00000128      -0.00126339      -0.11541405
O        3.02991701       3.49973218       7.77905051        1       0.00035677      -0.00209993       0.00022111
C        0.00348580       5.25056066      10.00494538        2       0.00004516       0.00127541       0.00084571
Ti       0.00085660       6.99797400       8.71551641        0       0.00052229       0.00078326       0.00113038
Ti       1.51811808       6.12473703      11.30245380        0       0.00121526      -0.00027990       0.00129991
O        0.00600530       7.00347422      12.23008024        3      -0.00104366       0.00013162      -0.10045385
O        1.51572438       6.12133808       7.77791463        1       0.00031142       0.00066291      -0.00064413
C       -1.51473666       7.87664811      10.00063092        2       0.00036008       0.00062054       0.00097677
Ti      -1.51439628       9.62139353       8.71291630        0      -0.00025986      -0.00000260      -0.00056359
Ti      -0.00038178       8.74773333      11.30466453        0      -0.00081992      -0.00269523       0.00048393
O       -1.51596394       9.62204237      12.23008024        3       0.00136688      -0.00003602      -0.15243991
O        0.00034419       8.74558665       7.77477290        1       0.00016730      -0.00011709       0.00098782
C        6.05751658      -0.00215136       9.99864122        2      -0.00209490      -0.00132174      -0.00039699
Ti       6.06011561       1.74934090       8.71357611        0       0.00130901       0.00046653       0.00152354
Ti       7.56005057       0.86197305      11.28190366        0       0.00049438      -0.00182238       0.00101165
O        6.05769953       1.74617974      12.23008024        3      -0.00076286       0.00068471      -0.13651895
O        7.57782924       0.87812227       7.77722277        1       0.00039672       0.00130691       0.00100949
C        4.54580591       2.62338050      10.00319761        2       0.00014462      -0.00112420       0.00178234
Ti       4.54577438       4.37321153       8.71594185        0       0.00000840      -0.00045169       0.00108281
Ti       6.06191306       3.49654492      11.30891804        0       0.00092862       0.00008578       0.00181988
O        4.54530282       4.37355990      12.23008024        3      -0.00057024      -0.00225190      -0.12511843
O        6.06387346       3.49929303       7.77847876        1       0.00020000      -0.00302685       0.00250099
C        3.03158877       5.24775424      10.00397468        2      -0.00030099      -0.00078412      -0.00225587
Ti       3.03144295       6.99618285       8.71403333        0      -0.00024875      -0.00032792      -0.00115538
Ti       4.54547190       6.12160123      11.30049361        0      -0.00041033      -0.00045367       0.00177002
O        3.03234837       6.99734208      12.23008024        3      -0.00135085      -0.00014136      -0.14265352
O        4.54730134       6.12198178       7.77730764        1      -0.00138521      -0.00166543       0.00088748
C        1.51606535       7.87169868      10.00156497        2       0.00020251      -0.00000392      -0.00131776
Ti       1.51715724       9.62059212       8.71036468        0       0.00104432      -0.00130509       0.00018663
Ti       3.03017166       8.74534623      11.30534306        0       0.00085606       0.00024387       0.00049252
O        1.51473569       9.61498785      12.23008024        3      -0.00028271      -0.00061588      -0.15666729
O        3.03185148       8.74547153       7.77388506        1      -0.00202361      -0.00043296       0.00111628
C        9.09100696      -0.00500392       9.99598574        2       0.00028191      -0.00319754      -0.00183995
Ti       9.09101762       1.74999642       8.72129735        0      -0.00071903       0.00090822       0.00104404
Ti      10.61425805       0.86120912      11.27683303        0       0.00108383      -0.00317368       0.00050614
O        9.06589439       1.68666728      12.23008024        3       0.00139283       0.00258869      -0.30104497
O       10.60647532       0.87892877       7.77844409        1       0.00129960       0.00078028       0.00123730
C        7.58097551       2.62690609      10.00964352        2      -0.00049704      -0.00014687      -0.00285589
Ti       7.57511584       4.37273228       8.71490034        0       0.00060021      -0.00241452      -0.00138302
Ti       9.09003627       3.52215898      11.28020244        0      -0.00000695      -0.00000714       0.00077063
O        7.57133715       4.37417524      12.23008024        3       0.00140480      -0.00041091      -0.12569422
O        9.09324823       3.49929709       7.77904603        1       0.00064807      -0.00193453      -0.00072375
C        6.06147914       5.24802809      10.00483876        2      -0.00092806      -0.00055544      -0.00055432
Ti       6.06213812       6.99790036       8.71605061        0      -0.00042729      -0.00253638       0.00021945
Ti       7.57376511       6.12167012      11.30941247        0       0.00099358      -0.00105469       0.00110704
O        6.05996787       6.99820430      12.23008024        3       0.00248126       0.00147686      -0.12261590
O        7.57901277       6.12101216       7.78055834        1      -0.00043554       0.00019044       0.00113896
C        4.54663087       7.87094526      10.00243919        2      -0.00028772       0.00004644      -0.00166897
Ti       4.54493130       9.62058315       8.70942388        0      -0.00125852      -0.00048816       0.00092414
Ti       6.05945199       8.74535416      11.30674344        0       0.00017928      -0.00082234      -0.00062865
O        4.54394897       9.61552834      12.23008024        3       0.00030616       0.00124675      -0.16505016
O        6.06184456       8.74644635       7.77694018        1       0.00010442      -0.00095137       0.00015490
C        0.05858442       0.07339614      15.88471585       10       0.00111450       0.00348571       0.02285125
C        1.26719820       0.77632052      15.89310408       10       0.00025112       0.00290203       0.08347810
C       -1.13564140       2.16089349      15.86034518       10      -0.00114117       0.00193397       0.62130268
C        0.05490247       2.87446991      15.86798392       10      -0.00097793       0.00046927       0.10550206
C       -2.37500799       4.30823851      15.86033963       10       0.00047856       0.00044664       0.77194149
C       -1.16268813       4.98155043      15.86798136       10      -0.00031244      -0.00235966       0.04927052
C       -3.58565689       6.38559950      15.88471530       10       0.00184894      -0.00094937       0.02707680
C       -2.37283324       7.08054044      15.89310388       10       0.00022148      -0.00004374       0.04950439
C       -4.79591672       8.47583032      15.88282291       10       0.00013045      -0.00035119       0.04346567
C       -3.58400400       9.17567756      15.89411257       10      -0.00190908       0.00023363       0.04058470
C        2.47811720       0.07782610      15.89513759       10      -0.00228176      -0.00003725       0.03430926
C        3.68805172       0.77857566      15.89411248       10      -0.00074127      -0.00066608       0.03800244
C        1.27054340       2.17464556      15.88471606       10       0.00026004       0.00253768       0.02902412
C        2.47729792       2.87766370      15.87565593       10      -0.00034557       0.00121591       0.04188455
C        0.05076925       4.27719478      15.84185604       10       0.00077661      -0.00052242       0.21427860
C        1.26153983       4.97592095      15.85352599       10      -0.00289789       0.00254545      -0.02164567
C       -1.16044468       6.38447576      15.88471530       10      -0.00235318      -0.00160600       0.05703292
C        0.05188568       7.07759986      15.87565603       10      -0.00332037      -0.00102160       0.02824106
C       -2.37224568       8.47797322      15.89513780       10       0.00015801       0.00140514       0.05208369
C       -1.16041250       9.17572026      15.89411257       10       0.00314083       0.00049798       0.02782216
C        4.89817906       0.07781821      15.89513759       10       0.00018702       0.00100496       0.04718497
C        6.10880670       0.77729677      15.89310408       10      -0.00066362       0.00295522       0.05510300
C        3.68808065       2.17786275      15.88282278       10       0.00025387       0.00086833       0.04385896
C        4.89856309       2.87787745      15.87565593       10       0.00050613       0.00147540       0.03876567
C        2.47511011       4.27695945      15.86177243       10      -0.00127892       0.00155556       0.02877963
C        3.68712115       4.97661462      15.85898457       10      -0.00052007       0.00014316       0.05275770
C        1.26245554       6.37616483      15.86177233       10      -0.00220421       0.00098437       0.05605384
C        2.47451159       7.07581820      15.85898446       10      -0.00033660       0.00108617       0.04734931
C        0.05108598       8.47597162      15.88282291       10       0.00106759      -0.00070216       0.09144181
C        1.26261786       9.17456882      15.87565578       10       0.00247927      -0.00010397       0.01995946
C        7.31775336       0.07509139      15.88471585       10      -0.00056419       0.00384035       0.05423777
C        8.53196224       0.77825949      15.86798373       10       0.00080927       0.00259247       0.07072291
C        6.10577605       2.17550838      15.88471606       10       0.00095519       0.00335534       0.03628400
C        7.32244265       2.87519598      15.86798392       10       0.00270802       0.00046722       0.08629833
C        4.89936828       4.27704741      15.86177243       10       0.00129212       0.00208976       0.03329206
C        6.11276377       4.97618774      15.85352599       10       0.00283149       0.00277975      -0.00145885
C        3.68674989       6.37623577      15.85590657       10       0.00063009      -0.00297127       0.02979770
C        4.89918268       7.07602124      15.85898446       10      -0.00019979       0.00149221       0.05857229
C        2.47465925       8.47547389      15.86177216       10       0.00208429       0.00098456       0.03783872
C        3.68709620       9.17661927      15.85352558       10       0.00008503       0.00195134      -0.00045546
C        9.74709422       0.07829657      15.84185599       10       0.00154103       0.00408207       0.18368737
C       10.96401032       0.77524977      15.86798373       10      -0.00044801       0.00348957       0.11508285
C        8.51191615       2.16425512      15.86034518       10       0.00131665       0.00102187       0.44971447
C        9.74685261       2.87581833      15.61598592       10       0.00016081       0.00149359      -1.53249461
C        7.32327095       4.27797873      15.84185604       10       0.00053726       0.00006105       0.20534494
C        8.53579923       4.98277063      15.86798136       10       0.00233666      -0.00266894       0.09965461
C        6.11125027       6.37658891      15.86177233       10       0.00215988       0.00216567       0.02074895
C        7.32217897       7.07824191      15.87565603       10       0.00430698      -0.00117237       0.04423835
C        4.89952161       8.47528711      15.86177216       10      -0.00003386       0.00183990       0.02224091
C        6.11243930       9.17358702      15.87565578       10      -0.00180533       0.00055433       0.05802567
O        9.85620513       2.94470537      14.14888434       11      -0.00608412       0.00312581       0.00559071
H        9.44536771       2.19462142      13.61932017       12      -0.00015968      -0.00247604      -0.00414536
