132
Lattice="12.12 0.0 0.0 -6.06 10.496227893867395 0.0 0.0 0.0 40.0" Properties=species:S:1:pos:R:3:tags:I:1:forces:R:3 stress="0.0027772360415411986 -5.821000215631117e-06 3.1943552832472777e-06 -5.821000215631117e-06 0.0027640337184992913 -4.563911128102949e-06 3.1943552832472777e-06 -4.563911128102949e-06 0.0026780010511704357" energy=-1209.90618682847 pbc="T T F"
C       -0.00148773       0.00053787       9.99483925        2       0.00152432      -0.00058879       0.00055558
Ti      -0.00255750       1.75567415       8.70446101        0       0.00349507      -0.00145387       0.00143895
Ti       1.51423857       0.88015857      11.31488698        0       0.00168455      -0.00114089       0.00099374
O        0.00113667       1.74567970      12.23008024        3       0.00151472       0.00082222      -0.03084896
O        1.50959472       0.88046973       7.77748070        1       0.00154412      -0.00125191       0.00169848
C       -1.51821585       2.62929052      10.01409738        2       0.00018637       0.00100694      -0.00327225
Ti      -1.51536018       4.38098567       8.71351327        0       0.00112612      -0.00010383       0.00031761
Ti      -0.00910070       3.50166406      11.32314226        0       0.00036706       0.00217430      -0.00067998
O       -1.50663370       4.39542649      12.23008024        3      -0.00182631      -0.00109209      -0.25143040
O       -0.00512402       3.50405833       7.78255244        1       0.00135303      -0.00153658      -0.00091054
C       -3.03336351       5.25223613      10.00640978        2      -0.00019250       0.00091692      -0.00283962
Ti      -3.03264052       7.00101098       8.70541501        0       0.00040073       0.00222592      -0.00043750
Ti      -1.51534113       6.13238490      11.30725212        0       0.00273397      -0.00034519       0.00097895
O       -3.03286774       7.00646526      12.23008024        3      -0.00044542      -0.00065877       0.01699347
O       -1.51877939       6.12541414       7.78045239        1       0.00059826       0.00117809      -0.00102586
C       -4.54813365       7.87743469       9.99878577        2      -0.00024240      -0.00007291      -0.00030552
Ti      -4.54802239       9.62606434       8.70054717        0       0.00009326      -0.00096397      -0.00089024
Ti      -3.03443733       8.75041431      11.32285551        0       0.00143261       0.00253466      -0.00045240
O       -4.55127877       9.62747439      12.23008024        3       0.00055870      -0.00128103      -0.02872013
O       -3.03412837       8.74782364       7.77631219        1      -0.00025904       0.00122831       0.00060821
C        3.02721546       0.00411863       9.99785696        2       0.00040049      -0.00114682       0.00181619
Ti       3.02581385       1.75399825       8.70327500        0      -0.00011156      -0.00061749      -0.00068373
Ti       4.54528731       0.88274817      11.32039168        0       0.00107318      -0.00201855       0.00064614
O        3.02488882       1.75246777      12.23008024        3       0.00010722      -0.00179540       0.01227054
O        4.54228675       0.88079902       7.77597264        1       0.00058221      -0.00100904       0.00098010
C        1.51402583       2.62907447       9.99821762        2       0.00207348      -0.00217763      -0.00049912
Ti       1.51217292       4.37655800       8.70464817        0       0.00222811      -0.00049100      -0.00108881
Ti       3.02668811       3.50432996      11.32291300        0       0.00008634      -0.00258153       0.00027731
O        1.51373314       4.37656527      12.23008024        3       0.00137550      -0.00067167       0.01492003
O        3.02742789       3.50377090       7.77911706        1       0.00102060      -0.00095071      -0.00015132
C       -0.00137148       5.25560548      10.00067936        2      -0.00022039       0.00049026      -0.00223887
Ti      -0.00255852       7.00092657       8.70207682        0      -0.00023453       0.00115600      -0.00072306
Ti       1.51143658       6.12702173      11.32123355        0      -0.00048922      -0.00072637       0.00101432
O       -0.00009220       7.00406877      12.23008024        3      -0.00059511      -0.00029671      -0.00871903
O        1.51211775       6.12584229       7.77938259        1       0.00060540      -0.00018963      -0.00036685
C       -1.51811173       7.88154831       9.99738980        2       0.00065959       0.00084294      -0.00073160
Ti      -1.51873179       9.62564937       8.69717295        0      -0.00065706      -0.00188799      -0.00104767
Ti       0.00155570       8.75245634      11.31813512        0       0.00038957       0.00138721       0.00118688
O       -1.51845686       9.62663414      12.23008024        3       0.00046582      -0.00047608      -0.01786359
O       -0.00425291       8.74903835       7.77391489        1       0.00156611       0.00059137       0.00080124
C        6.05058482      -0.00022616       9.99471542        2       0.00021378      -0.00038354      -0.00003583
Ti       6.05463430       1.75383753       8.70527113        0      -0.00119254      -0.00229604       0.00030507
Ti       7.56911475       0.87629979      11.29430886        0       0.00215556      -0.00224451       0.00120894
O        6.05835146       1.74871993      12.23008024        3       0.00056913       0.00254356       0.01845874
O        7.57205663       0.87991655       7.77653306        1      -0.00039522      -0.00093504       0.00124907
C        4.54118952       2.62671292       9.99869350        2       0.00045927      -0.00107119      -0.00017041
Ti       4.54238176       4.37680628       8.70297243        0      -0.00078517      -0.00123985      -0.00086491
Ti       6.06143519       3.49758646      11.31218308        0      -0.00091945       0.00058286      -0.00109313
O        4.54324486       4.37547537      12.23008024        3       0.00059764      -0.00215139      -0.00957310
O        6.05840745       3.50288865       7.77912613        1      -0.00143141      -0.00229152       0.00029156
C        3.02948135       5.25157568       9.99945657        2       0.00021571      -0.00040593       0.00007025
Ti       3.02876686       6.99938891       8.70323632        0       0.00021654      -0.00031870       0.00075882
Ti       4.54357089       6.12400909      11.31719465        0       0.00085198      -0.00135216       0.00149434
O        3.02926368       7.00289082      12.23008024        3       0.00010311      -0.00000697      -0.01744611
O        4.54390626       6.12506396       7.77784840        1      -0.00051775      -0.00034402       0.00084709
C        1.51334944       7.87702657       9.99754720        2       0.00029388      -0.00038691       0.00038022
Ti       1.51157654       9.62141690       8.69954642        0      -0.00107167      -0.00117208       0.00031789
Ti       3.02789614       8.75410774      11.31680892        0       0.00101013       0.00252277       0.00244036
O        1.51477107       9.62595746      12.23008024        3      -0.00038196      -0.00131457      -0.00610121
O        3.02700934       8.74809300       7.77445067        1       0.00034124      -0.00099914       0.00116396
C        9.08615207      -0.00173168       9.99187346        2       0.00068115       0.00011155      -0.00156417
Ti       9.08458475       1.74884783       8.69075196        0       0.00069509      -0.00097600       0.00001490
Ti      10.61182265       0.87596047      11.28806682        0       0.00020034       0.00037784      -0.00155195
O        9.08953572       1.72607183      12.23008024        3       0.00506866       0.00300015       0.02641247
O       10.60128319       0.88151289       7.77598882        1       0.00188640       0.00005143       0.00116096
C        7.57406093       2.62681565      10.00620124        2       0.00029237       0.00125911      -0.00132796
Ti       7.56847478       4.37907281       8.70560967        0       0.00011998      -0.00026763      -0.00169332
Ti       9.10269968       3.50726928      11.34650293        0       0.00382733       0.00062032      -0.00225767
O        7.57138247       4.37573539      12.23008024        3       0.00323285      -0.00041895      -0.00466781
O        9.08817282       3.50226591       7.79123439        1       0.00098651      -0.00144247      -0.00123009
C        6.05926373       5.25024795      10.00161732        2       0.00040501      -0.00054287       0.00070779
Ti       6.05759978       7.00170535       8.70322048        0      -0.00012322       0.00039764      -0.00174260
Ti       7.57394733       6.12475705      11.31797358        0      -0.00109201       0.00240809      -0.00133178
O        6.05807887       7.00303867      12.23008024        3       0.00211767      -0.00091646       0.01326647
O        7.57344699       6.12478317       7.78029868        1       0.00009894       0.00226382      -0.00047732
C        4.54343317       7.87437604       9.99660724        2       0.00037123       0.00010152       0.00041146
Ti       4.54185489       9.62316956       8.69758527        0       0.00098243      -0.00167597      -0.00054258
Ti       6.05266441       8.74907209      11.32054070        0      -0.00057357      -0.00111253       0.00179715
O        4.54614598       9.62652430      12.23008024        3       0.00173898       0.00115413       0.00164869
O        6.05826782       8.74906450       7.77546679        1       0.00000138      -0.00107377       0.00009778
C        0.06736519       0.06605103      16.13086969       10      -0.00560141      -0.00396322      -0.04204439
C        1.27194790       0.77010101      16.13925792       10      -0.00094132       0.00215913       0.00824291
C       -1.12723919       2.15328777      16.10649902       10      -0.00013282       0.00344393       0.32068834
C        0.06127395       2.86732299      16.11413776       10      -0.00092237       0.00077303       0.09217795
C       -2.36524079       4.30868025      16.10649347       10       0.00090509      -0.00094929       0.72647988
C       -1.15400995       4.97714323      16.11413520       10      -0.00045881      -0.00091115       0.03807640
C       -3.57863933       6.38217228      16.13086914       10      -0.00264832       0.00132816       0.00470433
C       -2.36651324       7.07455445      16.13925772       10      -0.00056720      -0.00035266      -0.00042617
C       -4.78945845       8.47114502      16.12897675       10      -0.00282703       0.00008250      -0.01546438
C       -3.57865205       9.17015055      16.14026641       10       0.00532142       0.00543278       0.01555409
C        2.48367276       0.07026740      16.14129143       10      -0.00157357       0.00251829      -0.00752886
C        3.69250659       0.77099870      16.14026632       10      -0.00222813       0.00070085       0.00874143
C        1.27656608       2.16516440      16.13086990       10      -0.00027415       0.00006801      -0.02275126
C        2.48267165       2.86982886      16.12180977       10       0.00103773      -0.00056244       0.01768226
C        0.06196710       4.27236253      16.08800988       10      -0.00401427      -0.00094886       0.02974001
C        1.26932705       4.96967825      16.09967983       10      -0.00439061      -0.00001419      -0.02461235
C       -1.15393042       6.38140253      16.13086914       10      -0.00062936       0.00009861       0.02710732
C        0.05827032       7.07246896      16.12180987       10      -0.00028824       0.00084063      -0.01147783
C       -2.36647365       8.47334314      16.14129164       10       0.00044071      -0.00053504       0.03416440
C       -1.15601982       9.16976031      16.14026641       10      -0.00155167      -0.00009069      -0.00286801
C        4.90166505       0.07007722      16.14129143       10      -0.00298135       0.00004476       0.02369787
C        6.11379538       0.77011290      16.13925792       10      -0.00261710       0.00050396       0.01188643
C        3.69169623       2.16927013      16.12897662       10      -0.00030657      -0.00141824      -0.00107791
C        4.90230566       2.87066876      16.12180977       10      -0.00286215       0.00004007       0.02785236
C        2.48164642       4.26887569      16.10792627       10      -0.00199924       0.00136781       0.01970570
C        3.69336027       4.97081399      16.10513841       10      -0.00046331       0.00324500      -0.00020420
C        1.26859312       6.37101895      16.10792617       10       0.00028254       0.00132094       0.04540304
C        2.48185923       7.06973744      16.10513830       10       0.00235619      -0.00021940      -0.01132670
C        0.05614969       8.46949238      16.12897675       10      -0.00150262       0.00059994       0.03060873
C        1.26792658       9.16583959      16.12180962       10      -0.00106407      -0.00097322       0.00654695
C        7.31906197       0.06485470      16.13086969       10      -0.00056320      -0.00020626       0.01005603
C        8.53454210       0.76689798      16.11413757       10      -0.00010008       0.00064925       0.08153883
C        6.10764756       2.16552735      16.13086990       10      -0.00348618       0.00078023      -0.00514826
C        7.32416766       2.86845266      16.11413776       10      -0.00176851      -0.00038998       0.05620525
C        4.90457011       4.26949205      16.10792627       10      -0.00185630       0.00052382       0.00769466
C        6.11773569       4.97084088      16.09967983       10      -0.00076448      -0.00025317      -0.00431296
C        3.69318656       6.37031472      16.10206041       10       0.00275311       0.00306347       0.00183911
C        4.90531074       7.07005106      16.10513830       10       0.00039965       0.00277786       0.00099168
C        2.47977172       8.46908952      16.10792600       10      -0.00131756      -0.00196132       0.04373550
C        3.69417604       9.16879771      16.09967942       10      -0.00242654      -0.00055250      -0.00586295
C        9.75467472       0.06611790      16.08800983       10      -0.00288785      -0.00258803      -0.05306123
C       10.97189085       0.76776665      16.11413757       10       0.00393120       0.00392515       0.05328003
C        8.51019919       2.15202488      16.10649902       10      -0.00249025       0.00006049       0.34274850
C        9.74963961       2.86807392      15.86213976       10      -0.00146154      -0.00016849      -1.70646430
C        7.32629875       4.27454119      16.08800988       10      -0.00018435       0.00034159      -0.01345611
C        8.54224603       4.97901098      16.11413520       10       0.00287883      -0.00025830       0.08041459
C        6.11811327       6.37237891      16.10792617       10      -0.00319464       0.00018907       0.00723785
C        7.32856800       7.07310314      16.12180987       10      -0.00291152      -0.00081834       0.00981942
C        4.90730959       8.47021842      16.10792600       10      -0.00406697      -0.00188957       0.00407111
C        6.11898488       9.16724359      16.12180962       10       0.00356842      -0.00016354       0.01403803
O        9.76928519       2.98655024      14.34904683       11       0.00066558       0.00598432       0.00142256
H        9.48179394       2.17042135      13.87747193       12       0.00056192      -0.00175899       0.00153161
