130
Lattice="12.12 0.0 0.0 -6.06 10.496227893867395 0.0 0.0 0.0 40.0" Properties=species:S:1:pos:R:3:tags:I:1:forces:R:3 energy=-1201.7799339278886 stress="0.002851670240884175 6.477586439703563e-09 -8.713358550212245e-08 6.477586439703563e-09 0.0028515587902239654 -1.8457315568480997e-07 -8.713358550212245e-08 -1.8457315568480997e-07 0.0027657776531281445" pbc="T T F"
C       -0.00005180      -0.00009017      10.00663625        2       0.00007693       0.00018518      -0.00475113
Ti       0.00004208       1.74929175       8.71772281        0      -0.00015645      -0.00052412      -0.00195898
Ti       1.51533327       0.87479696      11.30619508        0      -0.00099716      -0.00092558       0.00599695
O       -0.00001087       1.74935998      12.23008024        3       0.00043057       0.00069184      -0.16656431
O        1.51475934       0.87457646       7.77916884        1       0.00017603       0.00008741       0.00121607
C       -1.51513312       2.62409783      10.00570189        2       0.00006079       0.00043028      -0.00384536
Ti      -1.51492938       4.37338872       8.71610853        0      -0.00004803      -0.00008970      -0.00126135
Ti      -0.00012230       3.49930100      11.30519669        0      -0.00088768      -0.00131213       0.00542840
O       -1.51477207       4.37384991      12.23008024        3       0.00055573       0.00026565      -0.17358139
O        0.00002471       3.49841549       7.77892390        1       0.00011097       0.00034565       0.00125089
C       -3.03013637       5.24805788      10.00485623        2       0.00008848      -0.00019325      -0.00338257
Ti      -3.03000590       6.99753426       8.71601099        0      -0.00009817       0.00021125      -0.00153563
Ti      -1.51532666       6.12263480      11.30451344        0      -0.00078822       0.00027816       0.00586705
O       -3.02949695       6.99760642      12.23008024        3       0.00058777      -0.00026975      -0.16910141
O       -1.51492016       6.12280338       7.77853389        1       0.00005171      -0.00002483       0.00150635
C       -4.54500656       7.87200709      10.00552809        2       0.00003563      -0.00043631      -0.00424073
Ti      -4.54503448       9.62164319       8.71756246        0      -0.00024256       0.00001829      -0.00224181
Ti      -3.02956638       8.74636388      11.30493897        0      -0.00103147       0.00005809       0.00653012
O       -4.54464551       9.62129591      12.23008024        3       0.00051787       0.00008773      -0.16779944
O       -3.03021410       8.74703953       7.77884082        1       0.00021565      -0.00015411       0.00155014
C        3.03015160      -0.00001001      10.00573130        2       0.00047566       0.00041636      -0.00395954
Ti       3.02979429       1.74925931       8.71602039        0      -0.00026385      -0.00047943      -0.00091212
Ti       4.54512782       0.87479506      11.30223341        0      -0.00011345      -0.00076992       0.00521394
O        3.03013459       1.74932181      12.23008024        3       0.00037440       0.00087625      -0.18348625
O        4.54479167       0.87455432       7.77820392        1       0.00005689       0.00006280       0.00148923
C        1.51508163       2.62411041      10.00580668        2       0.00034639       0.00067782      -0.00337776
Ti       1.51493420       4.37340968       8.71629898        0      -0.00038297      -0.00010914      -0.00095290
Ti       3.03011898       3.49864130      11.30230773        0      -0.00014435      -0.00076727       0.00448189
O        1.51479242       4.37395517      12.23008024        3       0.00040442       0.00073303      -0.17290967
O        3.02976017       3.49860061       7.77818952        1       0.00005800       0.00015915       0.00131454
C       -0.00006849       5.24810695      10.00552341        2       0.00036078      -0.00002796      -0.00321400
Ti      -0.00000037       6.99746462       8.71680600        0      -0.00021815       0.00012352      -0.00165631
Ti       1.51513772       6.12272968      11.30500309        0      -0.00013508       0.00060665       0.00486015
O       -0.00012803       6.99740066      12.23008024        3       0.00037186      -0.00037072      -0.14613058
O        1.51492190       6.12278633       7.77866876        1      -0.00000985      -0.00011569       0.00129144
C       -1.51501791       7.87207773      10.00548161        2       0.00056712      -0.00025476      -0.00375505
Ti      -1.51501184       9.62149546       8.71634840        0      -0.00027756      -0.00017661      -0.00146483
Ti       0.00004882       8.74671904      11.30527533        0      -0.00012308       0.00041497       0.00570173
O       -1.51455790       9.62105111      12.23008024        3       0.00050614      -0.00013252      -0.16807521
O       -0.00001112       8.74678357       7.77873670        1      -0.00004989      -0.00008901       0.00129839
C        6.06001405       0.00015231      10.00506477        2      -0.00007311       0.00002571      -0.00319291
Ti       6.05995852       1.74957752       8.71567542        0       0.00015421      -0.00041891      -0.00117938
Ti       7.57470572       0.87481713      11.30216943        0       0.00069605      -0.00008774       0.00543887
O        6.05999258       1.74911551      12.23008024        3      -0.00026924       0.00009306      -0.16208279
O        7.57517481       0.87455680       7.77815025        1      -0.00019189      -0.00000935       0.00148448
C        4.54516577       2.62417162      10.00484394        2       0.00003740       0.00040962      -0.00260335
Ti       4.54509086       4.37329413       8.71569932        0       0.00001278       0.00016657      -0.00109211
Ti       6.06027149       3.49917056      11.30465152        0       0.00093945      -0.00035023       0.00322862
O        4.54460938       4.37366938      12.23008024        3      -0.00070538      -0.00005307      -0.16019900
O        6.05999376       3.49872940       7.77778500        1      -0.00010539       0.00005723       0.00105779
C        3.03015079       5.24804779      10.00499389        2      -0.00007496      -0.00020245      -0.00262743
Ti       3.02999760       6.99749717       8.71615830        0       0.00007298       0.00043559      -0.00103530
Ti       4.54500207       6.12256776      11.30195817        0       0.00082744       0.00094422       0.00498722
O        3.02939557       6.99752349      12.23008024        3      -0.00068834      -0.00084722      -0.16098378
O        4.54496631       6.12299889       7.77802711        1      -0.00013664      -0.00019939       0.00151592
C        1.51491199       7.87208376      10.00549745        2      -0.00011897      -0.00037617      -0.00341204
Ti       1.51500453       9.62152721       8.71630847        0       0.00024494       0.00001580      -0.00122047
Ti       3.02948261       8.74639985      11.30497712        0       0.00111300       0.00120864       0.00570371
O        1.51460979       9.62108205      12.23008024        3      -0.00032440      -0.00049329      -0.15990206
O        3.03018585       8.74699351       7.77887362        1      -0.00025842      -0.00031309       0.00134273
C        9.08979799       0.00003839      10.00562368        2      -0.00043569      -0.00008802      -0.00399011
Ti       9.09018842       1.74926602       8.71586013        0       0.00028411      -0.00028795      -0.00112206
Ti      10.60442418       0.87479312      11.30576170        0       0.00000507      -0.00037283       0.00637619
O        9.08990288       1.74937474      12.23008024        3      -0.00034929       0.00026703      -0.18390564
O       10.60526792       0.87456628       7.77910081        1      -0.00009609       0.00003372       0.00128861
C        7.57493221       2.62418794      10.00483608        2      -0.00060458       0.00020184      -0.00308685
Ti       7.57492435       4.37335600       8.71568977        0       0.00038065       0.00021767      -0.00148161
Ti       9.08993729       3.49858890      11.30198726        0       0.00017837      -0.00057494       0.00541535
O        7.57570412       4.37383641      12.23008024        3      -0.00029982      -0.00016888      -0.15910034
O        9.09022646       3.49858985       7.77804290        1      -0.00008483       0.00024363       0.00153034
C        6.06006197       5.24805686      10.00478829        2      -0.00051779      -0.00064211      -0.00280606
Ti       6.05998949       6.99768859       8.71568883        0       0.00017320       0.00041642      -0.00129108
Ti       7.57489972       6.12278003      11.30174323        0       0.00014082       0.00074001       0.00566489
O        6.06004921       6.99743447      12.23008024        3      -0.00045141      -0.00066755      -0.18283872
O        7.57499853       6.12302921       7.77793348        1       0.00007264      -0.00018095       0.00173636
C        4.54497772       7.87197002      10.00551979        2      -0.00042832      -0.00068217      -0.00374647
Ti       4.54504802       9.62160419       8.71740500        0       0.00020841       0.00014928      -0.00190201
Ti       6.05992791       8.74616649      11.30543127        0       0.00001297       0.00060636       0.00655510
O        4.54429610       9.62110304      12.23008024        3      -0.00073434      -0.00055756      -0.16938164
O        6.06000449       8.74719546       7.77899948        1      -0.00001677      -0.00029353       0.00143825
C        0.04499840       0.06750056      15.76854178       10      -0.00433966      -0.00301765       0.05642506
C        1.25716554       0.76734863      15.76854178       10       0.00276379       0.00077243       0.06750565
C       -1.16738402       2.16721135      15.76854178       10       0.00112443      -0.00545262       0.04823994
C        0.04491189       2.86663106      15.76854178       10       0.00033510       0.00064848       0.06025241
C       -2.37911406       4.26633394      15.76854178       10       0.00089775      -0.00299220       0.05056334
C       -1.16693103       4.96584667      15.76854178       10       0.00087050       0.00113814       0.04077098
C       -3.59077931       6.36517039      15.76854178       10      -0.00033517      -0.00362177       0.05047384
C       -2.37876840       7.06498653      15.76854178       10      -0.00180006       0.00269490       0.03933597
C       -4.80285201       8.46415881      15.76854178       10      -0.00265853      -0.00139047       0.04688918
C       -3.59100941       9.16420144      15.76854178       10       0.00460625      -0.00061450       0.05521025
C        2.46949782       0.06752532      15.76854178       10      -0.00233371       0.00215207       0.05332173
C        3.68126382       0.76743644      15.76854178       10      -0.00244286      -0.00345283       0.05721646
C        1.25717173       2.16717989      15.76854178       10       0.00024735      -0.00322298       0.05260961
C        2.46909912       2.86671487      15.76854178       10      -0.00088619       0.00101845       0.05670467
C        0.04498261       4.26625863      15.76854178       10      -0.00114088      -0.00184152       0.05225193
C        1.25703921       4.96574796      15.76854178       10      -0.00040974       0.00190775       0.04348795
C       -1.16665170       6.36538625      15.76854178       10      -0.00587975      -0.00216121       0.07088778
C        0.04529557       7.06508413      15.76854178       10      -0.00184801       0.00091623       0.05499513
C       -2.37884873       8.46435631      15.76854178       10      -0.00173503       0.00138211       0.05757571
C       -1.16702362       9.16434988      15.76854178       10       0.00068736      -0.00568221       0.04471054
C        4.89327487       0.06750933      15.76854178       10      -0.00173760       0.00581015       0.05647320
C        6.10505663       0.76761968      15.76854178       10      -0.00220553      -0.00363135       0.04064503
C        3.68117778       2.16700593      15.76854178       10       0.00181036      -0.00020410       0.03717561
C        4.89290374       2.86669888      15.76854178       10       0.00155351      -0.00178892       0.06284498
C        2.46909842       4.26624993      15.76854178       10       0.00177708       0.00023230       0.05420602
C        3.68119504       4.96576879      15.76854178       10      -0.00196768      -0.00007777       0.04208467
C        1.25721604       6.36527461      15.76854178       10      -0.00146144       0.00155141       0.07198059
C        2.46917371       7.06502988      15.76854178       10      -0.00199082       0.00072165       0.04096336
C        0.04502068       8.46455225      15.76854178       10       0.00231367       0.00336723       0.07241780
C        1.25697656       9.16442763      15.76854178       10       0.00171398      -0.00561968       0.04390354
C        7.31691256       0.06760798      15.76854178       10      -0.00060802       0.00564606       0.05486237
C        8.52887580       0.76753168      15.76854178       10       0.00118821      -0.00132947       0.05508360
C        6.10483541       2.16711910      15.76854178       10       0.00157375      -0.00031609       0.04871525
C        7.31671470       2.86665241      15.76854178       10       0.00595242       0.00188938       0.06393716
C        4.89318558       4.26606857      15.76854178       10       0.00008648      -0.00163482       0.04853755
C        6.10499466       4.96575910      15.76854178       10       0.00138512       0.00152000       0.06567118
C        3.68107927       6.36520472      15.76854178       10       0.00099660      -0.00115704       0.05232273
C        4.89314951       7.06483601      15.76854178       10      -0.00015694       0.00324262       0.05431769
C        2.46880607       8.46441489      15.76854178       10       0.00313411       0.00326306       0.06468650
C        3.68087596       9.16426069      15.76854178       10       0.00215082      -0.00164102       0.04987551
C        9.74064088       0.06756638      15.76854178       10      -0.00429352       0.00096161       0.05187666
C       10.95279087       0.76736982      15.76854178       10       0.00227743       0.00152302       0.06854382
C        8.52859242       2.16710365      15.76854178       10       0.00190308      -0.00223380       0.03703451
C        9.74073615       2.86676225      15.76854178       10       0.00023638       0.00356573       0.05417514
C        7.31679028       4.26602950      15.76854178       10      -0.00061031      -0.00089025       0.04961229
C        8.52886954       4.96572544      15.76854178       10      -0.00050363       0.00316466       0.04383440
C        6.10513410       6.36501583      15.76854178       10      -0.00028220      -0.00088757       0.03632178
C        7.31716165       7.06478360      15.76854178       10      -0.00094023       0.00547788       0.05446282
C        4.89278601       8.46419688      15.76854178       10      -0.00233531      -0.00070420       0.04964621
C        6.10488178       9.16402661      15.76854178       10       0.00426670       0.00312648       0.06893972
