132
Lattice="12.12 0.0 0.0 -6.06 10.496227893867395 0.0 0.0 0.0 40.0" Properties=species:S:1:pos:R:3:tags:I:1:forces:R:3 stress="0.0028835991335925725 1.2980786473662567e-06 -5.5355429835295535e-08 1.2980786473662567e-06 0.0028691055455616174 6.384826502324016e-07 -5.5355429835295535e-08 6.384826502324016e-07 0.002633200066782033" energy=-1210.978036165944 pbc="T T F"
C        0.00065000       0.00241209      10.00429736        2       0.00056689       0.00156595       0.00080199
Ti       0.00251354       1.75328471       8.71866857        0      -0.00083370       0.00122184      -0.00363649
Ti       1.51422385       0.87953710      11.30718069        0       0.00178731      -0.00085835      -0.00477646
O        0.00119249       1.74806632      12.23008024        3       0.00081011       0.00064872      -0.07539549
O        1.51396490       0.87922658       7.78005132        1       0.00153297      -0.00156339       0.00072387
C       -1.51555292       2.62923277      10.01506479        2       0.00065347       0.00191148       0.00324492
Ti      -1.51234152       4.37680330       8.72189996        0       0.00154242       0.00024289       0.00256625
Ti      -0.00456808       3.50261372      11.32065432        0       0.00194882       0.00160648      -0.00365202
O       -1.50149212       4.39879079      12.23008024        3       0.00283102       0.00485821      -0.40906495
O       -0.00139642       3.50164377       7.78324604        1       0.00249338       0.00175403      -0.00193080
C       -3.02895593       5.24874744      10.01292101        2      -0.00055359      -0.00021789       0.00043221
Ti      -3.02829295       7.00220953       8.72083205        0       0.00221646       0.00050944      -0.00157585
Ti      -1.51181790       6.12477153      11.31326750        0       0.00144635       0.00062121      -0.00335141
O       -3.03119446       7.00601591      12.23008024        3      -0.00100855       0.00020329      -0.00874433
O       -1.51541994       6.12348002       7.78297292        1       0.00096379       0.00108469      -0.00095214
C       -4.54356973       7.87584830      10.00423639        2       0.00002876      -0.00065948       0.00179308
Ti      -4.54351382       9.62450249       8.71671853        0       0.00063623       0.00000842       0.00055780
Ti      -3.02984383       8.75181090      11.30364921        0      -0.00071658       0.00008865      -0.00379257
O       -4.54453818       9.62487052      12.23008024        3      -0.00214152      -0.00024724      -0.04162725
O       -3.02954947       8.74813745       7.77783870        1      -0.00080788       0.00098724       0.00126828
C        3.03111035       0.00284577      10.00223033        2       0.00000201      -0.00019139       0.00498926
Ti       3.03142493       1.75197111       8.71742813        0      -0.00137227       0.00117647       0.00111673
Ti       4.54380719       0.87813766      11.30519482        0       0.00241435       0.00162420      -0.00250166
O        3.02998317       1.75089282      12.23008024        3      -0.00231598       0.00055102      -0.01977498
O        4.54649719       0.87941756       7.77804264        1       0.00057079      -0.00065137       0.00184407
C        1.51553263       2.62693940      10.00757531        2      -0.00109095      -0.00115914       0.00108483
Ti       1.51580012       4.37622208       8.72066217        0       0.00110192       0.00027131      -0.00097382
Ti       3.03015745       3.50122074      11.30497741        0       0.00115045      -0.00003376      -0.00323904
O        1.52054816       4.37795334      12.23008024        3      -0.00131570      -0.00030026      -0.01152750
O        3.03027621       3.50250284       7.78065404        1      -0.00048111      -0.00037790       0.00030517
C        0.00217774       5.25254112      10.00760690        2       0.00006479      -0.00083827      -0.00136829
Ti       0.00093975       7.00086755       8.71785283        0      -0.00188147      -0.00094872       0.00006230
Ti       1.51789393       6.12644590      11.30349167        0      -0.00139619       0.00099476      -0.00187839
O        0.00455372       7.00448857      12.23008024        3       0.00006152       0.00023262      -0.01458216
O        1.51579601       6.12477553       7.77988729        1      -0.00210526      -0.00145719       0.00141750
C       -1.51426885       7.87811140      10.00328411        2      -0.00020162       0.00176492       0.00064892
Ti      -1.51423814       9.62461483       8.71435101        0       0.00049266      -0.00109435       0.00626077
Ti       0.00001448       8.74975549      11.30370142        0       0.00084055       0.00313436      -0.00239532
O       -1.51499220       9.62530744      12.23008024        3      -0.00105501       0.00009830      -0.04319278
O        0.00113977       8.74877032       7.77749029        1       0.00026852       0.00152083       0.00011290
C        6.05944786       0.00181034      10.00220937        2       0.00125458       0.00188694       0.00222609
Ti       6.06070252       1.75223168       8.71744295        0       0.00092673      -0.00276530      -0.00086156
Ti       7.56757422       0.86996223      11.29119382        0       0.00562247       0.00298554      -0.00148077
O        6.05869179       1.75020663      12.23008024        3       0.00301997       0.00132394      -0.03362326
O        7.57775115       0.88047417       7.77979597        1       0.00033525      -0.00128491       0.00005605
C        4.54569807       2.62632129      10.00478282        2       0.00120840      -0.00119192       0.00160695
Ti       4.54563064       4.37637433       8.71800740        0      -0.00016270      -0.00162048       0.00029654
Ti       6.06200947       3.50052621      11.30753814        0      -0.00114222      -0.00144484      -0.00248088
O        4.54428251       4.37651704      12.23008024        3       0.00112685      -0.00168005      -0.03144135
O        6.06335774       3.50192427       7.78063364        1      -0.00054058       0.00052699       0.00025138
C        3.03123663       5.25071856      10.00515531        2       0.00098214       0.00135514       0.00338620
Ti       3.03132540       6.99975475       8.71574343        0      -0.00089280      -0.00074825       0.00204382
Ti       4.54561133       6.12508313      11.30428511        0      -0.00056928      -0.00140404      -0.00215047
O        3.03245752       7.00135981      12.23008024        3       0.00101645      -0.00011974      -0.03890182
O        4.54679388       6.12506500       7.77926728        1       0.00047789      -0.00078099       0.00069085
C        1.51610904       7.87491476      10.00333383        2      -0.00018088       0.00034995       0.00436217
Ti       1.51683938       9.62408839       8.71431422        0      -0.00247746       0.00255779       0.00105241
Ti       3.03140897       8.74960742      11.30524419        0      -0.00038456       0.00005691      -0.00160763
O        1.51645702       9.62121486      12.23008024        3       0.00308497       0.00442033      -0.04856310
O        3.03128626       8.74929276       7.77713624        1       0.00050155       0.00186069       0.00022233
C        9.09108402       0.00024120      10.00126621        2       0.00230388       0.00322016       0.00148458
Ti       9.09095659       1.75288488       8.72160798        0       0.00182232       0.00090965       0.00025030
Ti      10.61334615       0.86898829      11.28485862        0       0.00011494       0.00236442      -0.00442001
O        9.08200787       1.72404072      12.23008024        3      -0.00117327      -0.00034503       0.10473322
O       10.60572219       0.88106520       7.78022808        1      -0.00072993      -0.00305710      -0.00264500
C        7.57920021       2.62891412      10.00987581        2       0.00352803       0.00324106       0.00322967
Ti       7.57542851       4.37631537       8.71537834        0      -0.00179353       0.00117047       0.00416156
Ti       9.08908842       3.51787379      11.28980786        0       0.00498215      -0.00190980       0.00113347
O        7.57051754       4.37768319      12.23008024        3       0.00225199       0.00069132      -0.05163543
O        9.09252548       3.50186311       7.78011718        1      -0.00086231       0.00077068       0.00347432
C        6.06132911       5.25115871      10.00594522        2       0.00049093      -0.00058954       0.00288882
Ti       6.06170807       7.00091902       8.71807354        0      -0.00126145      -0.00142521       0.00129269
Ti       7.57416499       6.12500042      11.31041882        0       0.00073791       0.00215720      -0.00256570
O        6.06020084       7.00257796      12.23008024        3      -0.00050413      -0.00023697      -0.00813431
O        7.57819675       6.12428286       7.78152739        1      -0.00146563      -0.00011682      -0.00026460
C        4.54661341       7.87487676      10.00362531        2      -0.00121489      -0.00237501       0.00353231
Ti       4.54532676       9.62418678       8.71304818        0       0.00063595      -0.00087110      -0.00160443
Ti       6.06039480       8.74969377      11.30643237        0      -0.00089275      -0.00210269      -0.00379115
O        4.54547269       9.62030950      12.23008024        3      -0.00040759       0.00371897      -0.05739749
O        6.06127291       8.74967253       7.77860424        1      -0.00091570      -0.00005833      -0.00114329
C        0.05789919       0.06886281      16.13086969       10      -0.00098677      -0.00593503      -0.02785563
C        1.26655526       0.77153833      16.13925792       10       0.00287425      -0.00280828       0.05503308
C       -1.13828079       2.15689199      16.10649902       10       0.00012705      -0.00518220       0.47948801
C        0.05372299       2.86951163      16.11413776       10       0.00088268      -0.00025402       0.07963581
C       -2.37490306       4.29931469      16.10649347       10      -0.00082425      -0.00288923       0.65367412
C       -1.16305509       4.97524357      16.11413520       10      -0.00093994       0.00087401       0.02885108
C       -3.58546156       6.37915794      16.13086914       10      -0.00048584      -0.00017924       0.00418846
C       -2.37300674       7.07472344      16.13925772       10       0.00002918       0.00276627       0.03122951
C       -4.79603945       8.47057283      16.12897675       10      -0.00167666      -0.00162699       0.01225968
C       -3.58424183       9.17028607      16.14026641       10       0.00367065      -0.00003292       0.01441954
C        2.47740731       0.07257661      16.14129143       10       0.00249429       0.00035838      -0.01234544
C        3.68763651       0.77332370      16.14026632       10       0.00058163      -0.00178409       0.00867151
C        1.26922623       2.16985074      16.13086990       10       0.00059868      -0.00251282      -0.01156308
C        2.47667933       2.87256157      16.12180977       10      -0.00013867      -0.00164532       0.01201249
C        0.05071731       4.27181262      16.08800988       10      -0.00013047       0.00217185       0.20385088
C        1.26129029       4.97091231      16.09967983       10       0.00272719      -0.00213400      -0.04975053
C       -1.16111647       6.37805880      16.13086914       10       0.00309320       0.00130380       0.02741508
C        0.05110042       7.07181867      16.12180987       10       0.00331770       0.00151077      -0.01414916
C       -2.37245025       8.47239627      16.14129164       10       0.00066809      -0.00088015       0.03053336
C       -1.16056834       9.17025708      16.14026641       10      -0.00314360      -0.00058855      -0.00338455
C        4.89792018       0.07255976      16.14129143       10      -0.00013768       0.00093534       0.01928005
C        6.10866890       0.77189047      16.13925792       10      -0.00174486      -0.00326568       0.03278628
C        3.68763140       2.17271465      16.12897662       10      -0.00008923       0.00116415       0.01992407
C        4.89836776       2.87274510      16.12180977       10      -0.00177110      -0.00222082      -0.00231222
C        2.47488859       4.27189369      16.10792627       10       0.00283036       0.00079165       0.00143583
C        3.68694022       4.97142336      16.10513841       10      -0.00018438       0.00041463       0.02911174
C        1.26186418       6.37091744      16.10792617       10       0.00412244       0.00063540       0.02413603
C        2.47413101       7.07040638      16.10513830       10       0.00117050       0.00077299       0.02055933
C        0.05076966       8.47015841      16.12897675       10       0.00051043       0.00023947       0.05604326
C        1.26230520       9.16886874      16.12180962       10      -0.00333464       0.00002635      -0.00566829
C        7.31759187       0.06965871      16.13086969       10      -0.00173765      -0.00271483       0.03106322
C        8.53154466       0.77232402      16.11413757       10      -0.00272007      -0.00327683       0.04924740
C        6.10600678       2.17018727      16.13086990       10      -0.00459413      -0.00167208       0.00810134
C        7.32237614       2.86975711      16.11413776       10      -0.00503723       0.00099777       0.03603773
C        4.89924165       4.27209396      16.10792627       10      -0.00197352      -0.00015334       0.00116405
C        6.11296841       4.97108024      16.09967983       10      -0.00209138      -0.00137214      -0.04501612
C        3.68661988       6.37087315      16.10206041       10       0.00034365       0.00338537       0.00041483
C        4.89912787       7.07070834      16.10513830       10      -0.00008024       0.00059086       0.02823374
C        2.47454351       8.47002483      16.10792600       10      -0.00278909       0.00091626       0.02219772
C        3.68687043       9.17119606      16.09967942       10      -0.00119187      -0.00182384      -0.01998783
C        9.74709924       0.07298794      16.08800983       10      -0.00322604      -0.00411969       0.14697816
C       10.96354998       0.77055654      16.11413757       10       0.00206549      -0.00279227       0.07212904
C        8.51290403       2.15888180      16.10649902       10      -0.00546750      -0.00317912       0.36916458
C        9.74527597       2.86851982      15.86213976       10      -0.00297945      -0.00266009      -1.89561437
C        7.32365687       4.27237701      16.08800988       10      -0.00296475       0.00179808       0.16730564
C        8.53638498       4.97635175      16.11413520       10      -0.00162145       0.00245613       0.07703254
C        6.11138397       6.37145210      16.10792617       10      -0.00270028      -0.00087325      -0.00377262
C        7.32249396       7.07261599      16.12180987       10      -0.00320547       0.00246510       0.01461565
C        4.89945774       8.47013425      16.10792600       10      -0.00187262      -0.00135433      -0.00972989
C        6.11227375       9.16860372      16.12180962       10       0.00233217       0.00019411       0.01974170
O        9.84465915       2.94889998      14.36055751       11       0.00672362      -0.00184926      -0.00528825
H        9.45349103       2.20523983      13.83029682       12      -0.00532424       0.00748903       0.00151076
