130
Lattice="12.12 0.0 0.0 -6.06 10.496227893867395 0.0 0.0 0.0 40.0" Properties=species:S:1:pos:R:3:tags:I:1:forces:R:3 energy=-1200.102946134729 stress="0.0028475083719530126 3.975229671322371e-08 -9.419004526446387e-09 3.975229671322371e-08 0.0028474382748811733 -7.692326416471655e-08 -9.419004526446387e-09 -7.692326416471655e-08 0.0019167651843677495" pbc="T T F"
C        0.00000266       0.00000418      10.00062490        2       0.00000995      -0.00000409       0.00053059
Ti      -0.00000021       1.74938464       8.70995642        0      -0.00000692       0.00001239       0.00065576
Ti       1.51494258       0.87466555      11.29081658        0      -0.00005242      -0.00002343       0.00041980
O        0.00004151       1.74910607      12.23008024        3       0.00000734      -0.00000707       0.06754092
O        1.51503533       0.87469508       7.77046515        1       0.00003479       0.00000722       0.00083464
C       -1.51498094       2.62405735      10.00081051        2       0.00002455      -0.00001501       0.00060485
Ti      -1.51500031       4.37344263       8.71005035        0      -0.00001715       0.00000913       0.00090338
Ti      -0.00001715       3.49875015      11.29094712        0      -0.00001351      -0.00005586       0.00049691
O       -1.51496302       4.37339799      12.23008024        3       0.00002085      -0.00004089       0.07704124
O       -0.00000043       3.49878799       7.77049749        1       0.00000336       0.00009260       0.00093690
C       -3.03000467       5.24809832      10.00088876        2       0.00000971      -0.00000161       0.00075425
Ti      -3.02998524       6.99747662       8.71006825        0      -0.00000013      -0.00002101       0.00095234
Ti      -1.51501214       6.12277231      11.29104756        0      -0.00001457      -0.00000493       0.00060369
O       -3.02995114       6.99738716      12.23008024        3      -0.00003086       0.00004000       0.07791598
O       -1.51498266       6.12281686       7.77055564        1       0.00002955       0.00003134       0.00110701
C       -4.54498824       7.87219327      10.00085909        2      -0.00001678       0.00000113       0.00063579
Ti      -4.54498873       9.62153513       8.70997023        0       0.00000875      -0.00001590       0.00070133
Ti      -3.03000619       8.74682912      11.29097708        0      -0.00006267       0.00001083       0.00053499
O       -4.54528036       9.62181309      12.23008024        3      -0.00001556      -0.00001483       0.07049595
O       -3.02996442       8.74683337       7.77051380        1       0.00008833      -0.00005265       0.00099723
C        3.02997409      -0.00002883      10.00083255        2      -0.00004276       0.00000206       0.00061614
Ti       3.02999689       1.74936994       8.71001882        0       0.00002241       0.00000448       0.00084461
Ti       4.54492798       0.87468336      11.29099490        0      -0.00004849      -0.00001734       0.00058581
O        3.02941314       1.74908731      12.23008024        3      -0.00001602      -0.00000403       0.08061263
O        4.54501511       0.87469119       7.77054160        1       0.00006154      -0.00001851       0.00110107
C        1.51497071       2.62404904      10.00079672        2      -0.00002788      -0.00002078       0.00060408
Ti       1.51499909       4.37344148       8.71005490        0       0.00001022       0.00001392       0.00090864
Ti       3.02995624       3.49869215      11.29098585        0      -0.00003884      -0.00004136       0.00055810
O        1.51489164       4.37327488      12.23008024        3      -0.00000012       0.00000753       0.07728560
O        3.03001933       3.49874940       7.77053709        1       0.00002587       0.00004085       0.00107405
C        0.00000410       5.24806564      10.00090934        2      -0.00000060      -0.00001443       0.00072434
Ti       0.00000223       6.99748743       8.71014387        0       0.00000626       0.00000586       0.00104224
Ti       1.51501970       6.12276079      11.29106464        0       0.00001732       0.00000375       0.00060183
O        0.00003355       6.99753186      12.23008024        3       0.00001052      -0.00002650       0.04981477
O        1.51499434       6.12282011       7.77056424        1      -0.00000954       0.00003262       0.00112557
C       -1.51504595       7.87219676      10.00092745        2       0.00000075      -0.00000305       0.00075877
Ti      -1.51498790       9.62153335       8.71007218        0       0.00001347      -0.00000492       0.00096572
Ti      -0.00000636       8.74689221      11.29107237        0       0.00000345       0.00000951       0.00063159
O       -1.51511243       9.62153853      12.23008024        3      -0.00006008      -0.00001463       0.07647424
O        0.00000850       8.74684314       7.77056688        1       0.00001145      -0.00001241       0.00114883
C        6.05998541       0.00002542      10.00091328        2      -0.00000139      -0.00003101       0.00079839
Ti       6.06000083       1.74936111       8.71009550        0      -0.00000245      -0.00000656       0.00105895
Ti       7.57506041       0.87471628      11.29100633        0       0.00003727       0.00000223       0.00061139
O        6.06001401       1.74918579      12.23008024        3      -0.00003575      -0.00003509       0.07133506
O        7.57498644       0.87468266       7.77055001        1      -0.00006482      -0.00001792       0.00113134
C        4.54496464       2.62403359      10.00095103        2      -0.00003099      -0.00002161       0.00074484
Ti       4.54499481       4.37343395       8.71009919        0       0.00000382      -0.00001087       0.00103762
Ti       6.05998956       3.49873146      11.29104845        0      -0.00001728      -0.00004184       0.00065113
O        4.54489332       4.37350117      12.23008024        3      -0.00004403      -0.00003599       0.06608118
O        6.05999285       3.49873706       7.77057488        1      -0.00000292      -0.00001810       0.00121454
C        3.03000172       5.24808335      10.00091059        2      -0.00001235      -0.00000818       0.00074713
Ti       3.02998611       6.99747954       8.71009401        0       0.00000169      -0.00000975       0.00100014
Ti       4.54505217       6.12281563      11.29101266        0       0.00003207      -0.00002421       0.00058734
O        3.02999846       6.99737854      12.23008024        3       0.00006006       0.00001595       0.07700897
O        4.54499417       6.12279361       7.77055670        1      -0.00003360      -0.00004086       0.00113689
C        1.51505600       7.87219853      10.00095669        2       0.00000860       0.00000030       0.00077734
Ti       1.51498800       9.62153385       8.71009345        0      -0.00000107      -0.00000023       0.00100708
Ti       3.03001463       8.74685654      11.29100926        0       0.00007732       0.00001100       0.00057052
O        1.51498522       9.62158406      12.23008024        3       0.00007428      -0.00001391       0.07493038
O        3.02996276       8.74683343       7.77053281        1      -0.00007584      -0.00004935       0.00104899
C        9.09003278      -0.00002356      10.00087250        2       0.00003877       0.00000202       0.00065847
Ti       9.08999774       1.74937365       8.71002561        0      -0.00002842       0.00000573       0.00088408
Ti      10.60504668       0.87468827      11.29083812        0       0.00004975      -0.00001813       0.00043993
O        9.09049063       1.74919549      12.23008024        3       0.00004107      -0.00001924       0.08104140
O       10.60495654       0.87469312       7.77047395        1      -0.00005915      -0.00000031       0.00086597
C        7.57501641       2.62404526      10.00092920        2       0.00000341      -0.00002225       0.00077661
Ti       7.57500240       4.37343079       8.71009487        0      -0.00002413      -0.00001728       0.00103271
Ti       9.09002020       3.49871374      11.29098611        0       0.00000480      -0.00003321       0.00057485
O        7.57504090       4.37345269      12.23008024        3       0.00000395      -0.00002428       0.05945031
O        9.08998670       3.49874492       7.77053361        1      -0.00004836       0.00003740       0.00108168
C        6.05999955       5.24812041      10.00092191        2      -0.00000775      -0.00001663       0.00077957
Ti       6.06000046       6.99747791       8.71004155        0      -0.00000484      -0.00003273       0.00091015
Ti       7.57497188       6.12281089      11.29100058        0      -0.00001060      -0.00001811       0.00058234
O        6.06004168       6.99789751      12.23008024        3       0.00000847      -0.00002535       0.08104717
O        7.57499748       6.12279534       7.77054487        1       0.00001965      -0.00005518       0.00111469
C        4.54499604       7.87221046      10.00088590        2       0.00002765      -0.00000133       0.00066596
Ti       4.54499062       9.62153696       8.70998119        0      -0.00001052      -0.00001103       0.00075181
Ti       6.06001256       8.74689870      11.29085574        0       0.00001055       0.00000545       0.00046102
O        4.54542844       9.62184998      12.23008024        3       0.00002520      -0.00001738       0.07339357
O        6.05999365       8.74680949       7.77048638        1      -0.00001623      -0.00006822       0.00090024
C        0.04503390       0.06754430      17.73777255       10       0.00039601       0.00027602      -0.03934604
C        1.25708955       0.76732997      17.73777255       10      -0.00316689      -0.00131218      -0.03473599
C       -1.16702558       2.16675912      17.73777255       10       0.00017975       0.00202775      -0.02892607
C        0.04500224       2.86656581      17.73777255       10      -0.00009355      -0.00119857      -0.02671177
C       -2.37900756       4.26602564      17.73777255       10      -0.00099684       0.00053737      -0.02027519
C       -1.16701349       4.96577609      17.73777255       10       0.00084422      -0.00050966      -0.01574252
C       -3.59100900       6.36528313      17.73777255       10      -0.00097703       0.00157667      -0.01891326
C       -2.37903988       7.06507326      17.73777255       10       0.00082270      -0.00194305      -0.01548189
C       -4.80307306       8.46453139      17.73777255       10       0.00120852       0.00071485      -0.02735149
C       -3.59101959       9.16431413      17.73777255       10      -0.00073291      -0.00040300      -0.02389385
C        2.46902917       0.06759151      17.73777255       10       0.00150969       0.00002228      -0.02679174
C        3.68107100       0.76727362      17.73777255       10      -0.00221106      -0.00039413      -0.02724926
C        1.25701628       2.16678954      17.73777255       10       0.00202736       0.00160421      -0.02894198
C        2.46900708       2.86656906      17.73777255       10      -0.00209642       0.00013502      -0.02631231
C        0.04501591       4.26603322      17.73777255       10      -0.00086307       0.00019753      -0.02270279
C        1.25703474       4.96576279      17.73777255       10      -0.00099022       0.00154942      -0.01557323
C       -1.16706991       6.36524984      17.73777255       10      -0.00047191       0.00112335      -0.03664972
C        0.04497373       7.06502019      17.73777255       10       0.00113190      -0.00001726      -0.01440183
C       -2.37905410       8.46454228      17.73777255       10       0.00079388       0.00080735      -0.02330070
C       -1.16702732       9.16427883      17.73777255       10       0.00043348       0.00157428      -0.01543695
C        4.89305185       0.06760198      17.73777255       10       0.00002016      -0.00126486      -0.02473121
C        6.10502732       0.76732797      17.73777255       10       0.00077004      -0.00013681      -0.02067380
C        3.68098377       2.16678629      17.73777255       10       0.00139206       0.00005968      -0.01600743
C        4.89298966       2.86653403      17.73777255       10       0.00068512       0.00082352      -0.02890258
C        2.46904339       4.26606037      17.73777255       10       0.00094730      -0.00233494      -0.02361840
C        3.68100994       4.96579061      17.73777255       10      -0.00094732       0.00234827      -0.02363127
C        1.25704663       6.36526669      17.73777255       10      -0.00067865      -0.00079416      -0.03810231
C        2.46901211       7.06504263      17.73777255       10      -0.00139270      -0.00004326      -0.01527355
C        0.04497520       8.46456496      17.73777255       10      -0.00076326       0.00017779      -0.03986319
C        1.25696957       9.16428564      17.73777255       10      -0.00002301       0.00130707      -0.01524196
C        7.31700460       0.06760333      17.73777255       10      -0.00041075      -0.00152905      -0.02294341
C        8.52902855       0.76725668      17.73777255       10      -0.00078850      -0.00077233      -0.02741221
C        6.10502902       2.16683360      17.73777255       10      -0.00112583       0.00005621      -0.01483158
C        7.31703705       2.86654027      17.73777255       10       0.00045495      -0.00108847      -0.03287666
C        4.89300148       4.26605696      17.73777255       10       0.00099337      -0.00151984      -0.01474744
C        6.10498745       4.96582042      17.73777255       10       0.00085288      -0.00017136      -0.03558029
C        3.68098751       6.36527662      17.73777255       10       0.00211311      -0.00010541      -0.02028617
C        4.89297439       7.06505322      17.73777255       10      -0.00202755      -0.00158687      -0.02740732
C        2.46894655       8.46453370      17.73777255       10       0.00221131       0.00042357      -0.02327538
C        3.68098086       9.16427865      17.73777255       10      -0.00152265      -0.00000177      -0.02038251
C        9.74102291       0.06755936      17.73777255       10       0.00075460       0.00042905      -0.02630881
C       10.95303133       0.76728847      17.73777255       10      -0.00120557      -0.00068436      -0.03151746
C        8.52903738       2.16675251      17.73777255       10      -0.00081634       0.00198333      -0.01585289
C        9.74101296       2.86656218      17.73777255       10       0.00096687      -0.00155044      -0.02547145
C        7.31701129       4.26604321      17.73777255       10      -0.00083803       0.00055162      -0.01459277
C        8.52901567       4.96582200      17.73777255       10       0.00099197      -0.00051238      -0.02734172
C        6.10500035       6.36529645      17.73777255       10       0.00009997       0.00123709      -0.01574067
C        7.31702085       7.06507954      17.73777255       10      -0.00018085      -0.00199965      -0.02628307
C        4.89295594       8.46449818      17.73777255       10       0.00317132       0.00134988      -0.02696976
C        6.10495525       9.16428560      17.73777255       10      -0.00039308      -0.00024325      -0.02842810
