131
Lattice="12.12 0.0 0.0 -6.06 10.496227893867395 0.0 0.0 0.0 40.0" Properties=species:S:1:pos:R:3:tags:I:1:forces:R:3 stress="0.0029206322669219614 -4.2918258637633805e-07 -3.8507265199656394e-07 -4.2918258637633805e-07 0.0029204852474463915 -3.602102059608095e-07 -3.8507265199656394e-07 -3.602102059608095e-07 0.0023302695769953324" energy=-1205.5427619490124 pbc="T T F"
C       -0.00074119       0.00047874      10.00586926        2       0.00025325      -0.00018787      -0.00094068
Ti       0.00030045       1.74915078       8.71425216        0       0.00020728       0.00022979       0.00037147
Ti       1.51528117       0.87635402      11.29776985        0       0.00005356      -0.00112688       0.00075005
O       -0.00218029       1.75147436      12.23008024        3       0.00045139       0.00029550       0.12393203
O        1.51632320       0.87194804       7.77958744        1      -0.00060290       0.00117149      -0.00068884
C       -1.51520818       2.62386503      10.00364466        2       0.00008933       0.00009480       0.00005984
Ti      -1.51523697       4.37453970       8.71664181        0       0.00012051       0.00015135       0.00059957
Ti       0.00049902       3.49908957      11.29577520        0       0.00024960       0.00001640      -0.00060858
O       -1.51512068       4.36831820      12.23008024        3       0.00022456       0.00004313       0.13903151
O       -0.00093958       3.49900848       7.77573691        1       0.00019154      -0.00012675       0.00068463
C       -3.03007641       5.24704147      10.00853802        2       0.00003753       0.00032893      -0.00123761
Ti      -3.03041858       6.99864414       8.72790736        0       0.00000209      -0.00015934      -0.00387343
Ti      -1.51448996       6.12377946      11.30950022        0      -0.00069798       0.00061935       0.00145086
O       -3.03444643       6.98719721      12.23008024        3      -0.00036256      -0.00044798       0.05937857
O       -1.51656080       6.12608218       7.78319493        1       0.00065597      -0.00116057      -0.00119532
C       -4.54481190       7.87253759      10.01562694        2       0.00084922       0.00029727      -0.00292732
Ti      -4.54369356       9.62075036       8.72448241        0      -0.00001349      -0.00006177      -0.00332252
Ti      -3.02780664       8.74583923      11.34286365        0       0.00028711      -0.00025137      -0.00292183
O       -4.55476660       9.62675793      12.23008024        3      -0.00030167      -0.00000023       0.12270424
O       -3.02879598       8.74639225       7.78853324        1      -0.00027399      -0.00000187      -0.00535213
C        3.02971126      -0.00029839      10.01627396        2       0.00007747      -0.00091158      -0.00306089
Ti       3.03019306       1.74996800       8.71657864        0       0.00006819      -0.00053060       0.00054088
Ti       4.54485973       0.87594665      11.30214551        0      -0.00010164      -0.00123450       0.00099100
O        3.02900820       1.75447267      12.23008024        3      -0.00001065      -0.00040967       0.10818171
O        4.54388989       0.87069549       7.78138227        1       0.00039149       0.00127470      -0.00105701
C        1.51472156       2.62476234      10.00399343        2       0.00059459      -0.00007011      -0.00007539
Ti       1.51466458       4.37322061       8.71415303        0       0.00009474       0.00027119      -0.00052781
Ti       3.03045891       3.49971545      11.29539867        0       0.00021952      -0.00023283      -0.00036212
O        1.51547548       4.37242457      12.23008024        3       0.00012469      -0.00005552       0.10330687
O        3.02949212       3.49672222       7.77535525        1      -0.00003179       0.00074711       0.00041999
C        0.00041056       5.24730844      10.00627539        2       0.00011793       0.00047351      -0.00036847
Ti       0.00045995       6.99723543       8.72023724        0      -0.00041442       0.00016126       0.00044844
Ti       1.51776417       6.12098606      11.29398226        0       0.00014212      -0.00003728       0.00029667
O        0.00593713       6.99287438      12.23008024        3       0.00003148      -0.00015380       0.11318289
O        1.51196673       6.12452493       7.77686954        1       0.00084626      -0.00057943       0.00042700
C       -1.51583635       7.87258952      10.02161714        2      -0.00053209       0.00031831      -0.00308659
Ti      -1.51613130       9.62127240       8.72863902        0       0.00005865      -0.00005703      -0.00422261
Ti      -0.00104789       8.74543760      11.31095859        0      -0.00101682       0.00039746       0.00139630
O       -1.50815640       9.63038602      12.23008024        3       0.00019246       0.00058976       0.03873236
O       -0.00372064       8.74670236       7.78361991        1       0.00131283      -0.00019505      -0.00143217
C        6.06084515       0.00037945      10.00940025        2      -0.00038180      -0.00031365      -0.00151642
Ti       6.05950335       1.74906993       8.71545939        0      -0.00045937       0.00006573       0.00075525
Ti       7.57491894       0.87526427      11.29591798        0      -0.00006301       0.00001301      -0.00015346
O        6.06325239       1.75259182      12.23008024        3      -0.00035298       0.00015184       0.10933507
O        7.57404966       0.87371661       7.77607631        1       0.00025783       0.00030960       0.00056821
C        4.54513049       2.62557960      10.00399946        2      -0.00047490      -0.00008214      -0.00020823
Ti       4.54517674       4.37332649       8.71361069        0      -0.00022077      -0.00000295      -0.00126780
Ti       6.05937628       3.49907780      11.29432002        0      -0.00042079       0.00013905      -0.00062882
O        4.54517037       4.37327455      12.23008024        3       0.00012180      -0.00025665       0.09987413
O        6.06085109       3.49799890       7.77519854        1      -0.00018005       0.00016813       0.00087974
C        3.03042047       5.24784575      10.00244395        2       0.00009557      -0.00012176       0.00054584
Ti       3.02999819       6.99779759       8.71414879        0      -0.00026241      -0.00032802      -0.00059756
Ti       4.54450145       6.12191833      11.29522949        0       0.00020546      -0.00012286      -0.00036180
O        3.03094000       6.99700238      12.23008024        3      -0.00002802      -0.00002798       0.10435911
O        4.54632565       6.12413098       7.77515630        1      -0.00067307      -0.00045093       0.00048817
C        1.51580548       7.87194369      10.00661668        2      -0.00047762      -0.00031306      -0.00040190
Ti       1.51388268       9.62102827       8.71718212        0      -0.00014204      -0.00030098       0.00045648
Ti       3.03013479       8.74584870      11.29582089        0      -0.00008100      -0.00027206      -0.00064309
O        1.51989208       9.62347422      12.23008024        3      -0.00000798      -0.00019666       0.13403034
O        3.02909469       8.74754448       7.77591709        1       0.00022705      -0.00026729       0.00065626
C        9.09009152       0.00005365      10.00381118        2      -0.00011742      -0.00023262      -0.00000706
Ti       9.08970191       1.74941347       8.71336418        0      -0.00015371       0.00006155      -0.00073270
Ti      10.60461130       0.87479961      11.29563379        0      -0.00014410      -0.00002480      -0.00039396
O        9.09029240       1.74898086      12.23008024        3      -0.00017892      -0.00002002       0.11160695
O       10.60544735       0.87437411       7.77482889        1      -0.00036319       0.00009420       0.00050712
C        7.57511679       2.62388333      10.00334460        2      -0.00041674       0.00015498       0.00017432
Ti       7.57499977       4.37391627       8.71497300        0      -0.00039479       0.00027962       0.00088869
Ti       9.08913030       3.49828549      11.29554759        0      -0.00002596      -0.00003391      -0.00013781
O        7.57401616       4.36961651      12.23008024        3      -0.00034074       0.00015414       0.10767888
O        9.09025816       3.49972951       7.77569731        1      -0.00023486      -0.00035861       0.00070353
C        6.05870847       5.24726663      10.00365013        2      -0.00032013       0.00032709      -0.00000108
Ti       6.05954361       6.99708095       8.71616411        0       0.00043734       0.00010950       0.00066578
Ti       7.57349073       6.12204139      11.30058784        0       0.00087798       0.00053010       0.00111664
O        6.05566279       6.99594505      12.23008024        3       0.00027904       0.00011864       0.11084295
O        7.57780737       6.12567409       7.78076828        1      -0.00101768      -0.00104108      -0.00066406
C        4.54421748       7.87189329      10.00381681        2       0.00019259      -0.00062952      -0.00006230
Ti       4.54527185       9.62132470       8.71432708        0      -0.00012273      -0.00047502       0.00038509
Ti       6.05881450       8.74569517      11.29753910        0       0.00083852       0.00034895       0.00084984
O        4.54286446       9.62213820      12.23008024        3       0.00000306      -0.00060170       0.11508944
O        6.06306584       8.74724674       7.77943990        1      -0.00140760      -0.00030543      -0.00054935
C        0.04166590       0.06969211      16.83867695       10       0.00607880       0.00086336      -0.00551795
C        1.25238568       0.76898964      16.82338490       10      -0.00018280      -0.00130569       0.00877663
C       -1.16828209       2.16805628      16.84399765       10      -0.00127628       0.00170274      -0.02335904
C        0.04361122       2.86782196      16.82628722       10      -0.00058967       0.00104967      -0.00797314
C       -2.38026830       4.26548296      16.83867695       10      -0.00359737       0.00150643      -0.01135414
C       -1.16945082       4.96424689      16.82338490       10      -0.00053265       0.00074671       0.00998819
C       -3.58731895       6.36799440      16.77556620       10      -0.00260129       0.00116934      -0.02223217
C       -2.38054181       7.05085443      16.73374398       10       0.00096399      -0.00109392      -0.48657537
C       -4.80070742       8.46921964      16.77556620       10       0.00334090      -0.00016753      -0.01480682
C       -3.60598882       9.17315742      16.73374398       10      -0.00097717      -0.00133538      -0.46766154
C        2.46621733       0.06357183      16.77556620       10       0.00290689      -0.00229734      -0.01719666
C        3.67940970       0.76688057      16.74348752       10       0.00350584       0.00233368       0.15862639
C        1.25506477       2.16734645      16.81234193       10       0.00084524      -0.00060081      -0.02558570
C        2.46724451       2.86654495      16.79042752       10       0.00012212       0.00079426      -0.04921859
C        0.04279551       4.26736798      16.81234193       10       0.00053409      -0.00077391      -0.02769059
C        1.25446890       4.96719458      16.79042752       10      -0.00166982       0.00041680      -0.05707537
C       -1.17341547       6.36822201      16.77556620       10       0.00141629       0.00149498      -0.01350567
C        0.04234358       7.06698420      16.74348752       10      -0.00003571      -0.00130795       0.17472517
C       -2.38073161       8.46567181      16.28093832       10       0.00168796      -0.00230279       0.28945571
C       -1.15530367       9.17308219      16.73374398       10       0.00099531       0.00244775      -0.48437165
C        4.89259192       0.06347374      16.77556620       10      -0.00000248      -0.00323757      -0.01982124
C        6.10650961       0.76880579      16.82338490       10       0.00082610       0.00195246       0.02619730
C        3.67959167       2.16413996      16.77582123       10      -0.00172432       0.00146569      -0.10063780
C        4.89207882       2.86638749      16.79042752       10      -0.00101402       0.00058292      -0.03887706
C        2.46689879       4.26681561      16.78774591       10      -0.00182975       0.00023284      -0.01735119
C        3.67982694       4.96676124      16.78274514       10      -0.00070671       0.00134228      -0.03205195
C        1.25227936       6.36836005      16.77582123       10       0.00054164       0.00001591      -0.08860013
C        2.46675949       7.06703732      16.79042752       10       0.00099010       0.00117896      -0.05429351
C        0.03954323       8.46922222      16.77556620       10      -0.00053207      -0.00171379      -0.01413071
C        1.25743527       9.16768603      16.82338490       10      -0.00009675       0.00413903       0.00895833
C        7.31711827       0.06950076      16.83867695       10      -0.00122828      -0.00193507      -0.00146640
C        8.52856577       0.76902072      16.84561547       10      -0.00021164       0.00101643      -0.01979356
C        6.10411569       2.16711452      16.81234193       10      -0.00084992       0.00297562      -0.03761768
C        7.31574715       2.86768486      16.82628722       10      -0.00223975      -0.00088054       0.00016072
C        4.89261933       4.26656940      16.78774591       10      -0.00042992       0.00143045      -0.01845832
C        6.10494080       4.96710823      16.79042752       10      -0.00201154       0.00104768      -0.03876745
C        3.67956182       6.36720784      16.78774591       10      -0.00128736       0.00000880      -0.01109706
C        4.89242833       7.06701333      16.79042752       10      -0.00047833       0.00118760      -0.04959069
C        2.46704665       8.46627520      16.81234193       10      -0.00250244      -0.00134623      -0.02511670
C        3.67942970       9.16527103      16.82628722       10       0.00013290       0.00256505      -0.00841262
C        9.73943750       0.06851877      16.84399765       10       0.00224727      -0.00027015      -0.02453783
C       10.95038703       0.76915553      16.84561547       10      -0.00055305      -0.00183463      -0.02068975
C        8.52766376       2.16792438      16.84399765       10      -0.00243996       0.00233295      -0.03666331
C        9.73961719       2.86657855      16.84561547       10       0.00258983      -0.00119585      -0.01586197
C        7.31650830       4.26714375      16.81234193       10      -0.00174641       0.00038291      -0.03649788
C        8.52867447       4.96410717      16.82338490       10       0.00251282      -0.00071625       0.02939319
C        6.10683920       6.36825422      16.77582123       10      -0.00072371      -0.00203149      -0.10459893
C        7.31687706       7.06693576      16.74348752       10       0.00064194      -0.00225129       0.16489292
C        4.89179642       8.46634667      16.81234193       10       0.00182354      -0.00045113      -0.02922027
C        6.10156927       9.16783975      16.82338490       10      -0.00228425      -0.00240813       0.01313333
O       -2.38127040       8.46710953      14.92805502       11       0.00399468      -0.00266156       0.00021452
