132
Lattice="12.12 0.0 0.0 -6.06 10.496227893867395 0.0 0.0 0.0 40.0" Properties=species:S:1:pos:R:3:tags:I:1:forces:R:3 stress="0.002772109418381483 -1.0620925672564677e-07 2.448095226254991e-07 -1.0620925672564677e-07 0.0027654947961838574 1.2271749684205067e-06 2.448095226254991e-07 1.2271749684205067e-06 0.002820371127796651" energy=-1209.727544722447 pbc="T T F"
C        0.26060315      -0.17791545       9.99752570        2       0.00045488      -0.00287961       0.00577482
Ti       0.26017904       1.57474418       8.71380041        0      -0.00228304       0.00081377      -0.00336744
Ti       1.77556743       0.69981608      11.30083932        0       0.00140019       0.00296083      -0.00335746
O        0.25944924       1.56997169      12.23008024        3       0.00257692      -0.00005329      -0.22105709
O        1.76925755       0.70154501       7.77363025        1       0.00190328       0.00235692       0.00237307
C       -1.26560725       2.45664058      10.02577150        2      -0.00364905      -0.00116935       0.00310679
Ti      -1.25668435       4.19634719       8.72694226        0       0.00408321       0.00261087      -0.00122592
Ti       0.25656877       3.32657417      11.30767823        0      -0.00177562       0.00014995       0.00115735
O       -1.19368848       4.24310036      12.23008024        3      -0.00151042       0.00004034      -0.57196525
O        0.25062222       3.32284455       7.78033218        1       0.00140547      -0.00117186       0.00369429
C       -2.77239585       5.06344538      10.03098212        2      -0.00196984       0.00192824      -0.00120859
Ti      -2.77262861       6.82324350       8.71986909        0       0.00439930       0.00514458      -0.00095657
Ti      -1.24969572       5.95223214      11.30905979        0      -0.00050938       0.00360006      -0.00054993
O       -2.77262779       6.83348512      12.23008024        3       0.00223031      -0.00193054      -0.16878549
O       -1.26328252       5.94303159       7.78310689        1      -0.00008142       0.00162490      -0.00005342
C       -4.28782629       7.70176350       9.99959744        2      -0.00185266      -0.00154345      -0.00153312
Ti      -4.28719940       9.44486955       8.70989864        0      -0.00044933       0.00636543       0.00158179
Ti      -2.77189235       8.57657241      11.29903537        0      -0.00319196      -0.00608777       0.00089848
O       -4.28613721       9.44705729      12.23008024        3      -0.00229062       0.00199116      -0.22849555
O       -2.77206909       8.56582855       7.77360735        1      -0.00019783       0.00145726       0.00192622
C        3.28787433      -0.17514339       9.99918754        2      -0.00200736       0.00022726       0.00138538
Ti       3.28767483       1.57398413       8.71154930        0      -0.00212758       0.00367435      -0.00238123
Ti       4.79959735       0.70022348      11.30009817        0       0.00099434       0.00289747      -0.00020531
O        3.28750499       1.57222480      12.23008024        3       0.00030266       0.00003071      -0.21125875
O        4.80615870       0.70149112       7.77366785        1      -0.00183850       0.00144635       0.00043927
C        1.77587537       2.44751986      10.00131040        2      -0.00505846       0.00209915       0.00171929
Ti       1.77271161       4.19889062       8.71220026        0      -0.00046333      -0.00167962      -0.00529953
Ti       3.28748168       3.32337903      11.29665428        0       0.00273660      -0.00205791      -0.00065677
O        1.78296908       4.20238537      12.23008024        3      -0.00252375      -0.00087870      -0.22417590
O        3.28713875       3.32415749       7.77233147        1       0.00228922      -0.00064231       0.00046924
C        0.26405999       5.07747544       9.99954485        2      -0.00087558      -0.00167264      -0.00147799
Ti       0.25759467       6.82195767       8.71099730        0      -0.00328874      -0.00201770      -0.00313505
Ti       1.77699439       5.94897742      11.29468735        0      -0.00176391      -0.00016496      -0.00427392
O        0.26737708       6.83136268      12.23008024        3      -0.00334940       0.00023458      -0.20040412
O        1.77191168       5.94649479       7.77034055        1      -0.00126144       0.00296745       0.00047049
C       -1.25648099       7.70163511      10.00014617        2      -0.00209502       0.00006241      -0.00205303
Ti      -1.25696766       9.44490112       8.70990399        0       0.00056032       0.00409826       0.00373153
Ti       0.25844235       8.57266162      11.29824165        0      -0.00026429      -0.00289933      -0.00064083
O       -1.25835045       9.44784227      12.23008024        3       0.00079475      -0.00436319      -0.22503058
O        0.25745655       8.57048914       7.77010121        1      -0.00245377       0.00299509      -0.00037153
C        6.31481776      -0.17793900       9.99808638        2      -0.00084075       0.00012036       0.00070418
Ti       6.31517034       1.57484228       8.71335515        0       0.00296780      -0.00395798       0.00349741
Ti       7.81813989       0.68521379      11.27543781        0      -0.00306988      -0.00356090       0.00063768
O        6.31563574       1.57041012      12.23008024        3      -0.00128327       0.00106178      -0.22179149
O        7.83399612       0.70842412       7.77807672        1       0.00043693      -0.00050597       0.00423472
C        4.79942544       2.44759082      10.00103338        2       0.00257335       0.00297769       0.00192668
Ti       4.80209724       4.19841270       8.71120856        0      -0.00215796       0.00292833      -0.00014957
Ti       6.31851168       3.32719490      11.30776315        0      -0.00246509      -0.00511087       0.00062672
O        4.79226181       4.20252609      12.23008024        3       0.00336873       0.00000118      -0.22927390
O        6.32401609       3.32228158       7.78018850        1       0.00346127       0.00315336       0.00021846
C        3.28759097       5.07364453       9.99883688        2       0.00080848       0.00041730       0.00286466
Ti       3.28747320       6.82216476       8.70703731        0       0.00044649      -0.00457807      -0.00037329
Ti       4.79868753       5.94894468      11.29300419        0       0.00133602      -0.00095095       0.00354876
O        3.28788098       6.82490722      12.23008024        3       0.00005729      -0.00304276      -0.22059135
O        4.80286186       5.94653292       7.76937029        1       0.00274960       0.00180457       0.00304509
C        1.77349151       7.69683043       9.99745665        2      -0.00047423       0.00056862      -0.00298764
Ti       1.77502812       9.44692410       8.70425940        0      -0.00368161       0.00192570       0.00245513
Ti       3.28787068       8.57026005      11.29856796        0      -0.00209454       0.00266292      -0.00435964
O        1.77061556       9.43549768      12.23008024        3       0.00351054      -0.00268548      -0.27753156
O        3.28754851       8.57168794       7.76666825        1       0.00133508      -0.00320435      -0.00373343
C        9.34762200      -0.18206356       9.99027831        2       0.00254341      -0.00265534       0.00460804
Ti       9.34773386       1.57951060       8.73042820        0       0.00005306      -0.00743118       0.00428693
Ti      10.87682451       0.68460243      11.27516973        0       0.00275182      -0.00051101       0.00101044
O        9.34767466       1.45826399      12.23008024        3      -0.00000767      -0.00055864      -0.38495211
O       10.86118301       0.70884445       7.77780131        1       0.00080762      -0.00415644       0.00587030
C        7.84089466       2.45673739      10.02606041        2       0.00181086       0.00082320      -0.00179797
Ti       7.83123856       4.19650193       8.72747100        0       0.00245946      -0.00028792      -0.00192965
Ti       9.34732072       3.36096503      11.30622638        0       0.00421317       0.00456009      -0.00233865
O        7.76897362       4.24343990      12.23008024        3       0.00079944      -0.00155207      -0.56986829
O        9.34758550       3.32662329       7.78410101        1      -0.00170551      -0.00332820      -0.00234453
C        6.31093339       5.07740899       9.99870132        2       0.00215771       0.00003834       0.00270497
Ti       6.31747787       6.82190135       8.70930857        0       0.00160516      -0.00105562       0.00447837
Ti       7.82507684       5.95260702      11.30926753        0      -0.00019765       0.00640996      -0.00249420
O        6.30825156       6.83171792      12.23008024        3       0.00063118      -0.00343208      -0.20944305
O        7.83851079       5.94315725       7.78289603        1       0.00103511      -0.00124326      -0.00335910
C        4.80199847       7.69664836       9.99653361        2       0.00140388       0.00248274       0.00084156
Ti       4.80098466       9.44678864       8.70360850        0      -0.00256472       0.00408507       0.00287770
Ti       6.31716420       8.57241234      11.29716549        0       0.00183667      -0.00413466       0.00427157
O        4.80493843       9.43498207      12.23008024        3      -0.00230719       0.00072950      -0.28186024
O        6.31841185       8.57072381       7.76897970        1      -0.00080132       0.00200070       0.00325300
C       -0.34094813       0.35013253      15.63856200       10      -0.00080634      -0.00222302       0.08511950
C        0.86789520       1.05270349      15.64695023       10       0.00431469      -0.00108858       0.07930261
C       -1.53328100       2.43850203      15.61419133       10       0.00217094      -0.00304964       0.75161762
C       -0.34482561       3.15046000      15.62183007       10       0.00375797       0.00102790       0.12508336
C       -2.77154407       4.58149931      15.61418578       10      -0.00056685       0.00043965       0.64029138
C       -1.56120511       5.25621415      15.62182751       10       0.00055869      -0.00049012       0.09761385
C       -3.98425557       6.65974479      15.63856145       10       0.00069080       0.00030708       0.05602897
C       -2.77157826       7.35514730      15.64695003       10      -0.00005749       0.00168942       0.08289273
C       -5.19479835       8.75141450      15.63666906       10      -0.00271994      -0.00058698       0.08489460
C       -3.98336979       9.45105018      15.64795872       10      -0.00004780       0.00008219       0.06249129
C        2.07852427       0.35326684      15.64898374       10      -0.00136173      -0.00185001       0.07238850
C        3.28845148       1.05441059      15.64795863       10       0.00010544      -0.00162432       0.05161197
C        0.87187371       2.45073342      15.63856221       10       0.00067969      -0.00177439       0.06542436
C        2.07808694       3.15399876      15.62950208       10       0.00085390       0.00174832       0.05528438
C       -0.34755183       4.55319533      15.59570219       10       0.00058313       0.00057454       0.21153038
C        0.86276436       5.25175907      15.60737214       10       0.00049762       0.00234949       0.01688507
C       -1.55887767       6.65975510      15.63856145       10      -0.00148074       0.00124540       0.05608934
C       -0.34686550       7.35296637      15.62950218       10       0.00044312      -0.00262175       0.04266090
C       -2.77159672       8.75305458      15.64898395       10       0.00032470       0.00176113       0.08038181
C       -1.55981220       9.45098655      15.64795872       10       0.00137307      -0.00051166       0.06261077
C        4.49833162       0.35314851      15.64898374       10       0.00018517      -0.00128478       0.07252034
C        5.70896846       1.05243142      15.64695023       10      -0.00077927       0.00235127       0.07929749
C        3.28849202       2.45349151      15.63666893       10      -0.00191181       0.00039125       0.07956574
C        4.49886015       3.15397998      15.62950208       10      -0.00046662      -0.00137186       0.05534353
C        2.07667720       4.55317105      15.61561858       10      -0.00013385       0.00166053       0.05017536
C        3.28850934       5.25282401      15.61283072       10      -0.00096378      -0.00142629       0.11760557
C        0.86411720       6.65224850      15.61561848       10      -0.00068933       0.00207379       0.04443699
C        2.07630511       7.35190743      15.61283061       10       0.00105156      -0.00089855       0.09155670
C       -0.34832565       8.75138399      15.63666906       10       0.00097935      -0.00075260       0.08473951
C        0.86356156       9.44966117      15.62950193       10       0.00195438       0.00042157       0.05815075
C        6.91788600       0.34984759      15.63856200       10      -0.00196710       0.00114891       0.08518699
C        8.13228666       1.05291368      15.62182988       10      -0.00116327       0.00191497       0.11718863
C        5.70498122       2.45048754      15.63856221       10      -0.00212147       0.00167141       0.06544299
C        6.92157304       3.15032819      15.62183007       10       0.00043364      -0.00086529       0.12514513
C        4.50032249       4.55314404      15.61561858       10      -0.00034074       0.00116106       0.05017648
C        5.71420490       5.25170111      15.60737214       10       0.00045997       0.00199975       0.01708401
C        3.28846280       6.65232585      15.60975272       10       0.00076067      -0.00329529       0.05654755
C        4.50064023       7.35186465      15.61283061       10      -0.00033685       0.00151561       0.09174166
C        2.07609375       8.75146961      15.61561831       10      -0.00088835       0.00048168       0.04619492
C        3.28855310       9.45328839      15.60737173       10      -0.00079425      -0.00114393       0.02171329
C        9.34853933       0.35476375      15.59570214       10      -0.00201015       0.00027949       0.21422036
C       10.56461477       1.05318224      15.62182988       10       0.00165191      -0.00292585       0.11732955
C        8.10998051       2.43827340      15.61419133       10       0.00156655      -0.00013996       0.75188199
C        9.34833559       3.15033702      15.36983207       10      -0.00045510       0.00056869      -1.34688158
C        6.92451552       4.55309257      15.59570219       10      -0.00324117       0.00088453       0.21133106
C        8.13813048       5.25618686      15.62182751       10      -0.00142144      -0.00026321       0.09765965
C        5.71278608       6.65218159      15.61561848       10       0.00046326       0.00161684       0.04445570
C        6.92369773       7.35290143      15.62950218       10       0.00205735       0.00260917       0.04264750
C        4.50099659       8.75147854      15.61561831       10      -0.00267839       0.00037050       0.04613243
C        5.71336430       9.44987380      15.62950193       10       0.00115951      -0.00208570       0.05824327
O        9.34824572       3.12919516      13.89620968       11      -0.00113848      -0.00349736      -0.00748395
H        9.34774907       2.19324510      13.50926582       12       0.00095729       0.00005215      -0.00114333
