132
Lattice="12.12 0.0 0.0 -6.06 10.496227893867395 0.0 0.0 0.0 40.0" Properties=species:S:1:pos:R:3:tags:I:1:forces:R:3 stress="0.0028357531387539735 2.447928277805938e-06 -5.471882932511283e-07 2.447928277805938e-06 0.002838518599285017 3.7570151421204956e-07 -5.471882932511283e-07 3.7570151421204956e-07 0.001736874779636629" energy=-1208.3916715667067 pbc="T T F"
C        0.00048919       0.00065188      10.00069115        2       0.00020509      -0.00019225       0.00296381
Ti       0.00021926       1.75006399       8.70968090        0       0.00102424      -0.00050275       0.00581682
Ti       1.51494237       0.87563183      11.29193934        0      -0.00006062      -0.00021356      -0.00117057
O        0.00122605       1.74968536      12.23008024        3      -0.00230998       0.00133878      -0.00057407
O        1.51519010       0.87548598       7.77075227        1      -0.00082199       0.00042483       0.00037998
C       -1.51447197       2.62460096      10.00168257        2      -0.00086744       0.00022444       0.00429707
Ti      -1.51489287       4.37426887       8.71058315        0       0.00036761       0.00042810       0.00344972
Ti      -0.00069326       3.49891625      11.29293810        0      -0.00016487       0.00105566      -0.00093379
O       -1.51484706       4.37479637      12.23008024        3       0.00016995       0.00000726      -0.00643818
O       -0.00003352       3.49960734       7.77078206        1      -0.00004912      -0.00087111       0.00342622
C       -3.02984027       5.24923971      10.00115484        2      -0.00005365      -0.00018869       0.00181995
Ti      -3.02969545       6.99840163       8.71033337        0      -0.00036632       0.00032001      -0.00145581
Ti      -1.51512463       6.12306076      11.29165126        0       0.00063552       0.00180751      -0.00272383
O       -3.03005856       6.99800122      12.23008024        3       0.00065212       0.00052395       0.01351113
O       -1.51480991       6.12357342       7.77109268        1       0.00002963      -0.00145309      -0.00014863
C       -4.54484990       7.87310802      10.00068973        2       0.00040446      -0.00013408       0.00082776
Ti      -4.54489641       9.62244428       8.71073502        0       0.00098188      -0.00046358      -0.00344518
Ti      -3.02974075       8.74755928      11.29177006        0      -0.00011942       0.00096306      -0.00321149
O       -4.54472532       9.62201329      12.23008024        3      -0.00035776       0.00065328       0.01500282
O       -3.02991748       8.74774797       7.77062399        1       0.00058901      -0.00076127       0.00027053
C        3.03041469       0.00064503      10.00066310        2      -0.00073298       0.00042337       0.00178504
Ti       3.03001586       1.75020221       8.71059834        0       0.00083587      -0.00110099      -0.00281363
Ti       4.54527364       0.87547571      11.29166756        0      -0.00087495      -0.00021800      -0.00238235
O        3.03047702       1.75030221      12.23008024        3      -0.00100154      -0.00024760       0.01534046
O        4.54519130       0.87562660       7.77070982        1       0.00065648      -0.00020850       0.00063876
C        1.51534891       2.62469690      10.00053511        2       0.00029620      -0.00037873       0.00294314
Ti       1.51504501       4.37409922       8.71052593        0      -0.00025141      -0.00029815       0.00121866
Ti       3.03008680       3.49955482      11.29183295        0       0.00028993       0.00016846      -0.00267173
O        1.51556820       4.37425119      12.23008024        3       0.00006055       0.00022927       0.01430183
O        3.03015740       3.49959686       7.77102407        1      -0.00000221       0.00039791      -0.00120930
C       -0.00006022       5.24873122      10.00093984        2      -0.00002935       0.00081018       0.00218367
Ti       0.00011506       6.99828462       8.71052085        0      -0.00067228       0.00054371      -0.00108387
Ti       1.51471923       6.12340179      11.29205697        0       0.00147944       0.00036010      -0.00239325
O        0.00013903       6.99832110      12.23008024        3       0.00049410       0.00039957       0.01474662
O        1.51518063       6.12362364       7.77125831        1      -0.00010047      -0.00066772      -0.00177542
C       -1.51481802       7.87328544      10.00047188        2      -0.00028397      -0.00050957       0.00221879
Ti      -1.51487277       9.62238092       8.70941164        0      -0.00005538      -0.00030487       0.00343900
Ti       0.00014466       8.74754522      11.29150882        0      -0.00007586      -0.00018760      -0.00149531
O       -1.51486407       9.62220247      12.23008024        3      -0.00005187       0.00044520       0.01512365
O        0.00045061       8.74763504       7.77071892        1      -0.00058617       0.00026384       0.00098141
C        6.05983500       0.00060585      10.00079325        2       0.00035255       0.00034413       0.00167734
Ti       6.06010898       1.75003062       8.71082472        0      -0.00027434      -0.00030020      -0.00174283
Ti       7.57559021       0.87604944      11.29233884        0      -0.00137696      -0.00124195      -0.00391247
O        6.06017706       1.75049206      12.23008024        3      -0.00023365      -0.00049248       0.01531327
O        7.57521459       0.87547519       7.77186365        1       0.00111753       0.00060024      -0.00238122
C        4.54501198       2.62480804      10.00090155        2       0.00017254      -0.00038752       0.00065067
Ti       4.54527760       4.37402732       8.71035045        0      -0.00063523       0.00046778       0.00102670
Ti       6.06052394       3.49973221      11.29177976        0      -0.00090715      -0.00113144      -0.00281499
O        4.54483120       4.37442932      12.23008024        3       0.00038335      -0.00086339       0.01596113
O        6.06031005       3.49938624       7.77147714        1      -0.00010656       0.00112393      -0.00162193
C        3.03004053       5.24892029      10.00090695        2      -0.00006910      -0.00028033       0.00094530
Ti       3.03013354       6.99830827       8.71067725        0      -0.00020200      -0.00004843      -0.00024021
Ti       4.54487852       6.12371001      11.29193676        0       0.00132309      -0.00061153      -0.00167369
O        3.02983157       6.99824760      12.23008024        3       0.00119909      -0.00043651       0.01788611
O        4.54519116       6.12351226       7.77101826        1      -0.00039512       0.00027535      -0.00046092
C        1.51504228       7.87293843      10.00103732        2       0.00005870      -0.00003736       0.00058826
Ti       1.51508770       9.62245989       8.71102379        0      -0.00059183      -0.00005026      -0.00194478
Ti       3.03016262       8.74798765      11.29220103        0      -0.00012227      -0.00112975      -0.00201376
O        1.51496605       9.62185465      12.23008024        3       0.00009626       0.00016174       0.01502684
O        3.03011257       8.74777631       7.77153168        1       0.00044589       0.00017858      -0.00188731
C        9.09026922       0.00099632      10.00157875        2      -0.00082544       0.00024514       0.00111609
Ti       9.09011006       1.75009422       8.71133761        0      -0.00003405      -0.00000392       0.00077578
Ti      10.60528906       0.87642001      11.29388034        0      -0.00143523       0.00057115      -0.00165597
O        9.08991140       1.75044449      12.23008024        3      -0.00009758      -0.00003139       0.00022515
O       10.60481816       0.87549136       7.77119798        1       0.00111906       0.00052370       0.00249065
C        7.57503601       2.62479103      10.00167265        2       0.00001221      -0.00041858       0.00142070
Ti       7.57537141       4.37415966       8.71102026        0       0.00024726      -0.00026496       0.00058725
Ti       9.09055142       3.49936649      11.29580205        0       0.00052058      -0.00074963      -0.00237666
O        7.57481459       4.37459096      12.23008024        3       0.00021574      -0.00062490       0.01823792
O        9.09006518       3.49933465       7.77205537        1       0.00101240       0.00010375      -0.00003157
C        6.06014238       5.24892965      10.00093336        2       0.00121382      -0.00065822       0.00150555
Ti       6.06024826       6.99826155       8.71010859        0      -0.00012161       0.00038799       0.00102742
Ti       7.57500363       6.12370057      11.29087127        0       0.00056213       0.00121468      -0.00182133
O        6.05982055       6.99835882      12.23008024        3       0.00128755       0.00016358       0.01421596
O        7.57522867       6.12346735       7.77117516        1      -0.00085869      -0.00033616      -0.00126911
C        4.54504858       7.87295951      10.00087898        2       0.00035743       0.00044466       0.00139820
Ti       4.54524214       9.62243981       8.71070090        0       0.00013501       0.00051902       0.00163701
Ti       6.06011397       8.74766806      11.29190492        0       0.00053707      -0.00058970      -0.00295170
O        4.54553291       9.62125424      12.23008024        3      -0.00047744       0.00027034       0.01100718
O        6.06007022       8.74768250       7.77105720        1      -0.00075012      -0.00023733      -0.00114037
C        0.06696452       0.05444923      18.34625431       10      -0.00202186      -0.00213138      -0.00479941
C        1.27629482       0.75608491      18.35464254       10       0.00101881       0.00025407       0.02265446
C       -1.12893471       2.14484625      18.32188364       10       0.00337921      -0.00382830       0.51282643
C        0.06333868       2.85361720      18.32952238       10       0.00279086       0.00279182       0.03356096
C       -2.36406399       4.28156280      18.32187809       10      -0.00006256      -0.00170338       0.30128056
C       -1.15247940       4.95881643      18.32951982       10      -0.00092098       0.00306555       0.04686745
C       -3.57529442       6.36281654      18.34625376       10      -0.00396260       0.00083892       0.03264338
C       -2.36268969       7.05899721      18.35464234       10       0.00014641      -0.00055234       0.03385191
C       -4.78646598       8.45555364      18.34436137       10       0.00225122       0.00195702       0.00886112
C       -3.57473768       9.15498039      18.35565103       10       0.00535125       0.00050652      -0.00237777
C        2.48675057       0.05719655      18.35667605       10      -0.00003683       0.00111792      -0.00120215
C        3.69720061       0.75759822      18.35565094       10      -0.00022584      -0.00004628      -0.00239244
C        1.27933306       2.15424503      18.34625452       10      -0.00016424      -0.00114750      -0.00503191
C        2.48659795       2.85668516      18.33719439       10      -0.00006909       0.00108265      -0.00798512
C        0.06065660       4.25606660      18.30339450       10      -0.00196362       0.00199127       0.15701287
C        1.27127403       4.95523177      18.31506445       10      -0.00068663       0.00165022      -0.04126024
C       -1.15033371       6.36159295      18.34625376       10       0.00011941      -0.00024672       0.01954118
C        0.06154093       7.05668046      18.33719449       10       0.00221238       0.00216832      -0.01277867
C       -2.36271735       8.45707899      18.35667626       10      -0.00128116      -0.00314474      -0.00574869
C       -1.15063525       9.15487003      18.35565103       10      -0.00302551      -0.00206263      -0.00320609
C        4.90764863       0.05712052      18.35667605       10      -0.00010472       0.00243469      -0.00560687
C        6.11834687       0.75618078      18.35464254       10       0.00219907      -0.00100576       0.03349247
C        3.69709119       2.15672033      18.34436124       10      -0.00320226      -0.00143011       0.00885100
C        4.90766815       2.85678574      18.33719439       10      -0.00185907      -0.00074034      -0.00193279
C        2.48483547       4.25607733      18.32331089       10      -0.00038389      -0.00064952      -0.01946186
C        3.69648876       4.95625921      18.32052303       10       0.00175176      -0.00032876       0.00893477
C        1.27292664       6.35599982      18.32331079       10       0.00479540      -0.00148741      -0.01668418
C        2.48487439       7.05577386      18.32052292       10      -0.00002170       0.00197350       0.01464385
C        0.06102559       8.45532324      18.34436137       10      -0.00326169       0.00037958       0.01315385
C        1.27263038       9.15407189      18.33719424       10      -0.00494011      -0.00183887      -0.01277548
C        7.32852959       0.05492104      18.34625431       10      -0.00036441       0.00067192       0.01998453
C        8.54224706       0.75821313      18.32952219       10      -0.00049702      -0.00098851       0.04572117
C        6.11489874       2.15441924      18.34625452       10      -0.00310014      -0.00055727       0.03309202
C        7.33016241       2.85450638      18.32952238       10      -0.00039749       0.00324192       0.02580001
C        4.90851714       4.25640960      18.32331089       10       0.00041864      -0.00297002      -0.01137597
C        6.12193333       4.95591763      18.31506445       10       0.00251494      -0.00067338      -0.02729206
C        3.69688447       6.35604892      18.31744503       10       0.00108456      -0.00063295      -0.01997137
C        4.90901897       7.05622979      18.32052292       10      -0.00063103       0.00028536       0.00895957
C        2.48507063       8.45523670      18.32331062       10      -0.00041888      -0.00011401      -0.01665630
C        3.69719362       9.15721854      18.31506404       10      -0.00066814      -0.00253408      -0.04103409
C        9.75740609       0.05902650      18.30339445       10      -0.00138546      -0.00262734       0.15654775
C       10.97330449       0.75788891      18.32952219       10       0.00006318      -0.00166360       0.03348596
C        8.52313015       2.14604470      18.32188364       10      -0.00237743      -0.00030375       0.30454544
C        9.75498291       2.85847550      18.07752438       10       0.00106425      -0.00195984      -1.94650183
C        7.33248592       4.25689736      18.30339450       10       0.00261771       0.00252409       0.16069356
C        8.54578087       4.96024031      18.32951982       10       0.00204869       0.00225682       0.02592906
C        6.12122471       6.35655538      18.32331079       10      -0.00238065      -0.00008234      -0.01137599
C        7.33286655       7.05711236      18.33719449       10      -0.00413649       0.00389686      -0.00177019
C        4.90935977       8.45569908      18.32331062       10       0.00302572      -0.00046812      -0.01953208
C        6.12207204       9.15387363      18.33719424       10       0.00481674       0.00146579      -0.00800491
O        9.82624548       2.81786455      16.49063972       11      -0.00012390       0.00086553       0.00152000
H        9.03935186       3.26559075      16.13398768       12      -0.00113213       0.00094273      -0.00123696
