131
Lattice="12.12 0.0 0.0 -6.06 10.496227893867395 0.0 0.0 0.0 40.0" Properties=species:S:1:pos:R:3:tags:I:1:forces:R:3 stress="0.0028790219618237455 -6.895286024698682e-08 1.0816735730994851e-07 -6.895286024698682e-08 0.0028788142183119605 3.280370596059778e-08 1.0816735730994851e-07 3.280370596059778e-08 0.00201364324345284" energy=-1204.2635749857475 pbc="T T F"
C       -0.00025113       0.00010907      10.00229211        2       0.00027261      -0.00014940      -0.00088365
Ti       0.00033536       1.74915990       8.71094254        0       0.00023907       0.00010859       0.00035681
Ti       1.51553856       0.87534129      11.29343642        0       0.00008244      -0.00062989       0.00015196
O       -0.00110174       1.74988458      12.23008024        3       0.00028107       0.00005349       0.07822935
O        1.51590239       0.87301386       7.77407080        1      -0.00040677       0.00108261      -0.00071579
C       -1.51502776       2.62388256      10.00121354        2       0.00011472       0.00017451       0.00000801
Ti      -1.51495773       4.37394490       8.71232288        0       0.00018238       0.00006167       0.00013402
Ti       0.00036992       3.49866418      11.29134617        0       0.00007032       0.00028849      -0.00023028
O       -1.51454398       4.36933867      12.23008024        3       0.00015049       0.00002925       0.10131434
O       -0.00055988       3.49900895       7.77169427        1       0.00040313      -0.00008744       0.00049384
C       -3.02994971       5.24759377      10.00447166        2       0.00009017       0.00045180      -0.00133648
Ti      -3.03012745       6.99778272       8.71894256        0       0.00009854      -0.00009935      -0.00361882
Ti      -1.51463240       6.12335294      11.30036150        0      -0.00066546       0.00088830       0.00033117
O       -3.03159662       6.99245591      12.23008024        3      -0.00018125       0.00010646       0.07367509
O       -1.51580085       6.12465153       7.77666583        1       0.00068931      -0.00099301      -0.00166463
C       -4.54502696       7.87203321      10.00821021        2       0.00049777       0.00024543      -0.00271188
Ti      -4.54445837       9.62117369       8.71691833        0      -0.00000724      -0.00001126      -0.00288494
Ti      -3.02871827       8.74641594      11.32033058        0      -0.00014049       0.00011649      -0.00132629
O       -4.55034618       9.62431406      12.23008024        3      -0.00032337       0.00007525       0.09838455
O       -3.02916704       8.74644866       7.78038562        1      -0.00021536       0.00011606      -0.00455588
C        3.03009782       0.00002373      10.00845471        2       0.00002526      -0.00058673      -0.00269501
Ti       3.03010020       1.74946696       8.71255496        0       0.00010702      -0.00051133       0.00045955
Ti       4.54463479       0.87520710      11.29577787        0      -0.00017898      -0.00104979       0.00046546
O        3.02939790       1.75249293      12.23008024        3       0.00005183      -0.00052713       0.09352473
O        4.54459590       0.87240125       7.77522021        1       0.00036111       0.00134031      -0.00117587
C        1.51488442       2.62440339      10.00131208        2       0.00046081      -0.00001156       0.00008607
Ti       1.51489023       4.37342089       8.71085296        0       0.00018617       0.00013550      -0.00042659
Ti       3.03008053       3.49929296      11.29108625        0       0.00013650      -0.00016933      -0.00009914
O        1.51529642       4.37253655      12.23008024        3      -0.00001438       0.00004597       0.08829376
O        3.02980358       3.49766533       7.77149204        1       0.00009147       0.00071711       0.00043885
C        0.00049893       5.24757134      10.00312592        2       0.00006184       0.00048130      -0.00040779
Ti       0.00022098       6.99739461       8.71521555        0      -0.00026430       0.00017606      -0.00048437
Ti       1.51607432       6.12227400      11.29162668        0      -0.00030747       0.00020538      -0.00009955
O        0.00354451       6.99525504      12.23008024        3      -0.00041629       0.00024129       0.11067093
O        1.51330208       6.12375728       7.77262687        1       0.00095769      -0.00055258       0.00010906
C       -1.51521775       7.87234863      10.01180829        2      -0.00044434       0.00028603      -0.00317456
Ti      -1.51529848       9.62148259       8.71912476        0       0.00013185      -0.00000896      -0.00377995
Ti      -0.00042238       8.74643189      11.30119317        0      -0.00106480       0.00018824       0.00028732
O       -1.51147119       9.62540883      12.23008024        3      -0.00017608       0.00003531       0.07312503
O       -0.00203515       8.74669259       7.77680272        1       0.00120554      -0.00008747      -0.00177242
C        6.06047949       0.00025997      10.00471163        2      -0.00030773      -0.00034392      -0.00145345
Ti       6.05974274       1.74924308       8.71177075        0      -0.00022593       0.00001170       0.00042574
Ti       7.57498862       0.87485966      11.29192384        0      -0.00011518      -0.00021764      -0.00013936
O        6.06127050       1.75107705      12.23008024        3      -0.00040255      -0.00025095       0.10043766
O        7.57439610       0.87414640       7.77210002        1       0.00029241       0.00028109       0.00021813
C        4.54516314       2.62508441      10.00151811        2      -0.00021234      -0.00005759       0.00000004
Ti       4.54509216       4.37336108       8.71050637        0      -0.00002844       0.00003607      -0.00099743
Ti       6.05957678       3.49904803      11.29115705        0      -0.00009310      -0.00002213      -0.00035822
O        4.54456359       4.37354947      12.23008024        3       0.00008429      -0.00004919       0.09798572
O        6.06060224       3.49837437       7.77153623        1      -0.00023882       0.00018205       0.00053613
C        3.03018631       5.24803212      10.00071641        2       0.00006912      -0.00000446       0.00057756
Ti       3.02996768       6.99758201       8.71080661        0      -0.00003772      -0.00017275      -0.00038196
Ti       4.54451881       6.12246649      11.29108568        0       0.00023318      -0.00005175      -0.00005063
O        3.03099574       6.99800994      12.23008024        3       0.00000763       0.00013026       0.09482247
O        4.54578089       6.12346843       7.77139836        1      -0.00054001      -0.00039598       0.00047856
C        1.51572697       7.87201055      10.00319383        2      -0.00036924      -0.00025070      -0.00046005
Ti       1.51458057       9.62125415       8.71245980        0       0.00003737      -0.00016521       0.00008068
Ti       3.03011002       8.74662663      11.29130322        0      -0.00021918      -0.00019411      -0.00021184
O        1.51884778       9.62333836      12.23008024        3       0.00002562      -0.00015324       0.10686276
O        3.02941436       8.74721875       7.77166525        1       0.00032804      -0.00029055       0.00052149
C        9.09008405       0.00013156      10.00116247        2      -0.00009670      -0.00017029      -0.00003147
Ti       9.08998622       1.74936324       8.71064418        0      -0.00000589       0.00001222      -0.00057328
Ti      10.60518966       0.87446324      11.29176981        0      -0.00005277       0.00005625      -0.00010210
O        9.09048555       1.74891376      12.23008024        3      -0.00003432      -0.00001672       0.08824621
O       10.60522424       0.87457697       7.77115334        1      -0.00010600       0.00005363       0.00036231
C        7.57503209       2.62409743      10.00144883        2      -0.00027572       0.00014103       0.00019372
Ti       7.57502146       4.37374172       8.71175504        0      -0.00015253       0.00018608       0.00039946
Ti       9.08989747       3.49858784      11.29182095        0       0.00008122       0.00023127      -0.00015289
O        7.57451910       4.37160092      12.23008024        3      -0.00005419       0.00040060       0.10716602
O        9.09018452       3.49950518       7.77203064        1      -0.00008407      -0.00036085       0.00023359
C        6.05924810       5.24753577      10.00151082        2      -0.00008572       0.00020995       0.00005808
Ti       6.05997156       6.99732908       8.71237332        0       0.00052676       0.00018108       0.00042692
Ti       7.57434330       6.12309387      11.29545965        0       0.00068882       0.00069046       0.00041896
O        6.05694872       6.99660042      12.23008024        3       0.00045065       0.00031369       0.09678636
O        7.57676772       6.12427488       7.77503469        1      -0.00095579      -0.00099199      -0.00110479
C        4.54459228       7.87204334      10.00115380        2       0.00019755      -0.00038480       0.00004976
Ti       4.54529318       9.62136186       8.71080775        0       0.00000194      -0.00025481       0.00036680
Ti       6.05932113       8.74601939      11.29271622        0       0.00045650       0.00025635      -0.00005831
O        4.54390414       9.62198051      12.23008024        3       0.00002049      -0.00031502       0.08506543
O        6.06189335       8.74696045       7.77391477        1      -0.00116318      -0.00021561      -0.00070250
C        0.04125102       0.06991961      17.57713849       10       0.00599341       0.00065796       0.00633811
C        1.25192081       0.76937691      17.56184644       10       0.00008502      -0.00182134       0.02878492
C       -1.16867728       2.16817412      17.58245919       10      -0.00097386       0.00113795      -0.02026365
C        0.04324785       2.86780749      17.56474876       10      -0.00067779       0.00105255      -0.00421335
C       -2.38055496       4.26528269      17.57713849       10      -0.00383612       0.00088356       0.00416689
C       -1.16953073       4.96395593      17.56184644       10      -0.00086807       0.00081055       0.02561202
C       -3.58773488       6.36781486      17.51402774       10      -0.00284917       0.00077705      -0.02918294
C       -2.38064387       7.04940510      17.47220552       10       0.00064434      -0.00059317      -0.45548490
C       -4.80119573       8.46954147      17.51402774       10       0.00343559      -0.00058711      -0.02526092
C       -3.60732893       9.17408227      17.47220552       10      -0.00044409      -0.00197872      -0.45858830
C        2.46577626       0.06400296      17.51402774       10       0.00289775      -0.00245139      -0.02405383
C        3.67922959       0.76676586      17.48194906       10       0.00367991       0.00195363       0.16203628
C        1.25484510       2.16753063      17.55080347       10       0.00109381      -0.00104946      -0.02437198
C        2.46706447       2.86664916      17.52888906       10       0.00008210       0.00087258      -0.04257061
C        0.04261397       4.26715183      17.55080347       10       0.00054788      -0.00114037      -0.02425447
C        1.25429713       4.96716954      17.52888906       10      -0.00208340       0.00048175      -0.04612822
C       -1.17359045       6.36777812      17.51402774       10       0.00101156       0.00131237      -0.02090095
C        0.04183065       7.06714585      17.48194906       10      -0.00033040      -0.00126699       0.17243997
C       -2.38093253       8.46570107      17.01939986       10       0.00162496      -0.00234017       0.24379267
C       -1.15420683       9.17383540      17.47220552       10       0.00066020       0.00187892      -0.46284156
C        4.89253667       0.06383223      17.51402774       10      -0.00016624      -0.00317594      -0.02794039
C        6.10649879       0.76892633      17.56184644       10       0.00080209       0.00159686       0.02127751
C        3.67957289       2.16405094      17.51428277       10      -0.00184105       0.00182434      -0.09867864
C        4.89204653       2.86645783      17.52888906       10      -0.00074749       0.00050268      -0.03812729
C        2.46681069       4.26675938      17.52620745       10      -0.00188359       0.00015599      -0.00610834
C        3.67958659       4.96688940      17.52120668       10      -0.00085129       0.00138729      -0.04192988
C        1.25198801       6.36843745      17.51428277       10       0.00060606      -0.00024005      -0.08303657
C        2.46665739       7.06710027      17.52888906       10       0.00089241       0.00124368      -0.04597742
C        0.03967514       8.46941816      17.51402774       10      -0.00017491      -0.00187641      -0.02126686
C        1.25751485       9.16775306      17.56184644       10       0.00010634       0.00404862       0.02758119
C        7.31708604       0.06969688      17.57713849       10      -0.00110653      -0.00164670       0.00097151
C        8.52835757       0.76906837      17.58407701       10       0.00010679       0.00107901      -0.00679309
C        6.10406428       2.16711306      17.55080347       10      -0.00096967       0.00304344      -0.02169074
C        7.31562371       2.86756738      17.56474876       10      -0.00168488      -0.00085090      -0.00052642
C        4.89241505       4.26665966      17.52620745       10      -0.00086601       0.00129887      -0.00239518
C        6.10482460       4.96709660      17.52888906       10      -0.00198241       0.00113493      -0.03722981
C        3.67955121       6.36728397      17.52620745       10      -0.00154498      -0.00049439      -0.01057551
C        4.89218881       7.06714952      17.52888906       10      -0.00054683       0.00138107      -0.04226419
C        2.46710165       8.46644426      17.55080347       10      -0.00234727      -0.00156774      -0.02740982
C        3.67922627       9.16548526      17.56474876       10       0.00055055       0.00254074      -0.00994107
C        9.73911195       0.06865254      17.58245919       10       0.00218614      -0.00034741      -0.02011289
C       10.94994181       0.76929092      17.58407701       10      -0.00058175      -0.00187606      -0.01449217
C        8.52737682       2.16797776      17.58245919       10      -0.00244055       0.00210462      -0.02239500
C        9.73932402       2.86658056      17.58407701       10       0.00286623      -0.00132591      -0.00774646
C        7.31642027       4.26702662      17.55080347       10      -0.00212317       0.00014500      -0.01944487
C        8.52848134       4.96394788      17.56184644       10       0.00272696      -0.00073652       0.02699132
C        6.10691897       6.36840735      17.51428277       10      -0.00127001      -0.00260001      -0.09880439
C        7.31688937       7.06729177      17.48194906       10       0.00052939      -0.00220693       0.16296764
C        4.89154017       8.46645681      17.55080347       10       0.00175944      -0.00077589      -0.02693317
C        6.10099067       9.16802997      17.56184644       10      -0.00195079      -0.00253109       0.02704350
O       -2.38077298       8.46288633      15.66680216       11       0.00246639      -0.00004455      -0.00250599
