130
Lattice="12.12 0.0 0.0 -6.06 10.496227893867395 0.0 0.0 0.0 40.0" Properties=species:S:1:pos:R:3:tags:I:1:forces:R:3 energy=-1200.7591612136498 stress="0.0028239346293393963 -7.547504628377776e-08 7.156750217167406e-08 -7.547504628377776e-08 0.0028241320471046032 5.438508731975002e-08 7.156750217167406e-08 5.438508731975002e-08 0.002118016910683472" pbc="T T F"
C       -0.00002839      -0.00004522      10.00231750        2      -0.00002867       0.00004413      -0.00388175
Ti      -0.00000027       1.74937697       8.69067250        0      -0.00000878      -0.00016894       0.00074457
Ti       1.51537831       0.87482474      11.30475982        0       0.00024442       0.00014914      -0.00406626
O       -0.00003861       1.74969003      12.23008024        3      -0.00000613       0.00028370       0.06074077
O        1.51486111       0.87463330       7.76947587        1      -0.00025286      -0.00008843      -0.00610583
C       -1.51512653       2.62421368      10.00183565        2      -0.00019440       0.00020178      -0.00430219
Ti      -1.51507791       4.37343750       8.69029806        0       0.00005955      -0.00008761      -0.00094201
Ti      -0.00004775       3.49916579      11.30421231        0      -0.00005794       0.00027828      -0.00469761
O       -1.51565689       4.37510275      12.23008024        3      -0.00003486      -0.00000694       0.04288528
O        0.00001600       3.49849033       7.76928946        1      -0.00001580      -0.00050760      -0.00696022
C       -3.03009293       5.24808618      10.00101592        2      -0.00001957      -0.00001714      -0.00506178
Ti      -3.03004848       6.99742188       8.69029330        0      -0.00004989       0.00007709      -0.00114818
Ti      -1.51474869       6.12303294      11.30409751        0       0.00027070       0.00018643      -0.00554844
O       -3.02915759       6.99628390      12.23008024        3       0.00002747      -0.00007647       0.04078712
O       -1.51504546       6.12274911       7.76920596        1      -0.00010686      -0.00008720      -0.00785016
C       -4.54497443       7.87197510      10.00170754        2       0.00005661      -0.00025517      -0.00452033
Ti      -4.54499969       9.62152370       8.69060719        0      -0.00019335       0.00010726       0.00052041
Ti      -3.02965596       8.74658676      11.30413424        0       0.00010657      -0.00022203      -0.00480918
O       -4.54446395       9.62107505      12.23008024        3       0.00013131      -0.00009644       0.06960055
O       -3.03021356       8.74699932       7.76924947        1      -0.00046849       0.00025653      -0.00711448
C        3.03018379       0.00000347      10.00179433        2       0.00016249       0.00007014      -0.00436593
Ti       3.03013718       1.74944910       8.69037732        0       0.00000559       0.00001273      -0.00039614
Ti       4.54531254       0.87452868      11.30398478        0       0.00017280      -0.00021453      -0.00516518
O        3.03214450       1.75059938      12.23008024        3       0.00017178       0.00007506       0.07894030
O        4.54478622       0.87467867       7.76912835        1      -0.00032868      -0.00004343      -0.00769627
C        1.51509698       2.62422488      10.00189197        2       0.00018868       0.00018644      -0.00425543
Ti       1.51505579       4.37342483       8.69033519        0      -0.00004195      -0.00011629      -0.00096089
Ti       3.03005965       3.49912157      11.30402184        0       0.00000322       0.00026291      -0.00514155
O        1.51537322       4.37517226      12.23008024        3       0.00018587       0.00022784       0.04686316
O        3.02985022       3.49857838       7.76915919        1      -0.00021530      -0.00025117      -0.00769783
C       -0.00001164       5.24810934      10.00120886        2       0.00009515       0.00019750      -0.00500387
Ti      -0.00000067       6.99749220       8.69045924        0       0.00001570      -0.00001101      -0.00133846
Ti       1.51489171       6.12299920      11.30412320        0       0.00003038       0.00024249      -0.00551494
O        0.00031197       6.99796176      12.23008024        3       0.00018030       0.00002054       0.00763881
O        1.51503006       6.12272128       7.76922418        1       0.00010026      -0.00013598      -0.00791277
C       -1.51503249       7.87219261      10.00109889        2       0.00015054      -0.00007268      -0.00504604
Ti      -1.51498225       9.62159107       8.69030598        0      -0.00013954       0.00000241      -0.00115931
Ti       0.00007602       8.74677584      11.30414128        0       0.00005401      -0.00001609      -0.00553212
O       -1.51352797       9.62091745      12.23008024        3      -0.00001116       0.00002879       0.04317133
O       -0.00002747       8.74690894       7.76920415        1      -0.00003957       0.00014715      -0.00788983
C        6.06002530       0.00009599      10.00100105        2       0.00000131      -0.00008264      -0.00512855
Ti       6.06000770       1.74947208       8.69021709        0       0.00003726       0.00002001      -0.00145492
Ti       7.57482581       0.87455789      11.30393590        0      -0.00021422      -0.00012481      -0.00536294
O        6.06025521       1.74996692      12.23008024        3      -0.00009897       0.00001359       0.03853707
O        7.57517392       0.87469088       7.76908880        1       0.00028770      -0.00001563      -0.00780867
C        4.54515386       2.62413474      10.00101430        2       0.00014119       0.00008864      -0.00526561
Ti       4.54510130       4.37338942       8.69023075        0       0.00003815       0.00000130      -0.00142163
Ti       6.05999309       3.49863484      11.30403822        0      -0.00019520      -0.00012508      -0.00568745
O        4.54600113       4.37330657      12.23008024        3      -0.00007668      -0.00000656       0.03347231
O        6.05998627       3.49873026       7.76901695        1       0.00000438      -0.00002772      -0.00841972
C        3.03010902       5.24809307      10.00105214        2       0.00007204       0.00000312      -0.00512070
Ti       3.03004694       6.99743054       8.69027126        0       0.00008189       0.00011128      -0.00120828
Ti       4.54485077       6.12265286      11.30394733        0      -0.00005648      -0.00007703      -0.00540302
O        3.02925380       6.99660934      12.23008024        3       0.00018690      -0.00004492       0.03952019
O        4.54506074       6.12293002       7.76910631        1       0.00009413       0.00020551      -0.00794342
C        1.51504157       7.87219730      10.00098240        2       0.00004033      -0.00001242      -0.00513412
Ti       1.51498113       9.62159901       8.69026429        0       0.00015626      -0.00000296      -0.00121936
Ti       3.02962090       8.74659462      11.30405098        0      -0.00014401      -0.00012195      -0.00494871
O        1.51383674       9.62109720      12.23008024        3       0.00009207       0.00002411       0.03794661
O        3.03022108       8.74697792       7.76921695        1       0.00047728       0.00027468      -0.00730053
C        9.08985004       0.00005421      10.00162605        2      -0.00020753       0.00008098      -0.00451323
Ti       9.08986616       1.74945449       8.69030983        0      -0.00001040       0.00003153      -0.00055714
Ti      10.60463142       0.87476047      11.30462337        0      -0.00035834       0.00012418      -0.00407065
O        9.08786968       1.75061563      12.23008024        3      -0.00010997       0.00008598       0.06954837
O       10.60519337       0.87464305       7.76940895        1       0.00028763      -0.00001871      -0.00621237
C        7.57489462       2.62414715      10.00091951        2      -0.00026926       0.00008764      -0.00536778
Ti       7.57492522       4.37339485       8.69022378        0      -0.00001466      -0.00002304      -0.00144269
Ti       9.08993190       3.49906823      11.30396755        0      -0.00013998       0.00031533      -0.00510737
O        7.57399066       4.37303149      12.23008024        3      -0.00022893      -0.00006900       0.02619483
O        9.09015986       3.49860745       7.76909780        1       0.00026288      -0.00016212      -0.00766820
C        6.06003026       5.24794496      10.00087388        2      -0.00005728      -0.00018024      -0.00541348
Ti       6.06000968       6.99731982       8.69031583        0       0.00000663      -0.00003094      -0.00072458
Ti       7.57518024       6.12259734      11.30394634        0       0.00019977      -0.00016580      -0.00520740
O        6.06003875       6.99507834      12.23008024        3       0.00007328      -0.00007687       0.06288675
O        7.57496019       6.12296726       7.76908833        1      -0.00001082       0.00025245      -0.00781787
C        4.54499416       7.87198897      10.00161580        2      -0.00004083      -0.00023796      -0.00462034
Ti       4.54500670       9.62153836       8.69053435        0       0.00022460       0.00013753       0.00034281
Ti       6.05990902       8.74651963      11.30456231        0       0.00003440      -0.00028147      -0.00421378
O        4.54397871       9.62091961      12.23008024        3      -0.00005732      -0.00023386       0.07782369
O        6.06003361       8.74704686       7.76938596        1       0.00006433       0.00028774      -0.00638763
C        0.04484797       0.06751458      16.99931101       10       0.00780965       0.00316133       0.01195804
C        1.25673295       0.76706853      16.99931101       10      -0.00172637      -0.00041209      -0.00349560
C       -1.16701300       2.16649213      16.99931101       10       0.00183432      -0.00013147       0.00277560
C        0.04496411       2.86607989      16.99931101       10       0.00016316       0.00126286      -0.00678136
C       -2.37914037       4.26596787      16.99931101       10       0.00156578      -0.00142945      -0.00447235
C       -1.16693375       4.96567084      16.99931101       10      -0.00115235       0.00027297      -0.00700134
C       -3.59108861       6.36530721      16.99931101       10       0.00070223      -0.00082141      -0.00859914
C       -2.37894501       7.06511939      16.99931101       10      -0.00073016      -0.00105945      -0.01044096
C       -4.80315997       8.46473239      16.99931101       10       0.00684149      -0.00055556       0.00299522
C       -3.59108955       9.16442196      16.99931101       10      -0.00531319      -0.00310910      -0.00625179
C        2.46868749       0.06746945      16.99931101       10       0.00207147       0.00283332       0.00560354
C        3.68081183       0.76721040      16.99931101       10       0.00339678       0.00168937      -0.00171645
C        1.25686686       2.16636227      16.99931101       10       0.00110635       0.00235006       0.00476052
C        2.46895547       2.86639983      16.99931101       10       0.00040531       0.00069245      -0.00283534
C        0.04501732       4.26588179      16.99931101       10       0.00051895       0.00117153      -0.00338259
C        1.25704724       4.96572784      16.99931101       10       0.00008816       0.00084952      -0.00913548
C       -1.16698609       6.36524063      16.99931101       10       0.00064353       0.00122555      -0.01629319
C        0.04500456       7.06492934      16.99931101       10       0.00032852      -0.00013785      -0.04337221
C       -2.37890599       8.46450744      16.99931101       10      -0.00020114       0.00108872      -0.00412677
C       -1.16690362       9.16427450      16.99931101       10       0.00055686      -0.00003499      -0.01379611
C        4.89295151       0.06762187      16.99931101       10       0.00116735       0.00036636      -0.00373910
C        6.10489100       0.76734201      16.99931101       10       0.00113485       0.00005928      -0.01725679
C        3.68094546       2.16668768      16.99931101       10       0.00017602       0.00123407      -0.01460151
C        4.89307564       2.86664320      16.99931101       10      -0.00002174      -0.00022353      -0.01145802
C        2.46910666       4.26595716      16.99931101       10       0.00008323       0.00015116      -0.00225826
C        3.68102808       4.96587374      16.99931101       10      -0.00011258      -0.00004106      -0.01634976
C        1.25708360       6.36537415      16.99931101       10      -0.00001000       0.00026184      -0.01518084
C        2.46909237       7.06522919      16.99931101       10      -0.00019303      -0.00116461      -0.01616355
C        0.04517911       8.46446828      16.99931101       10      -0.00118969      -0.00008002      -0.01472700
C        1.25716191       9.16433752      16.99931101       10      -0.00119713      -0.00037862      -0.01798821
C        7.31687618       0.06769484      16.99931101       10      -0.00065377      -0.00001043      -0.00798729
C        8.52886109       0.76737612      16.99931101       10       0.00011505      -0.00117260      -0.00179623
C        6.10488346       2.16685368      16.99931101       10      -0.00038134       0.00011398      -0.03670248
C        7.31669956       2.86673940      16.99931101       10      -0.00067653      -0.00130044      -0.01252340
C        4.89290598       4.26606874      16.99931101       10      -0.00012251      -0.00080237      -0.04073932
C        6.10496998       4.96563347      16.99931101       10      -0.00052803      -0.00117756      -0.01259346
C        3.68113604       6.36532731      16.99931101       10      -0.00041321      -0.00059079      -0.01049793
C        4.89305995       7.06514004      16.99931101       10      -0.00109227      -0.00230023      -0.00301747
C        2.46917117       8.46465353      16.99931101       10      -0.00340315      -0.00164399      -0.00534453
C        3.68133182       9.16454733      16.99931101       10      -0.00205384      -0.00284953      -0.00736356
C        9.74097334       0.06761055      16.99931101       10       0.00520984       0.00304206       0.00501709
C       10.95321082       0.76713147      16.99931101       10      -0.00686440       0.00041600      -0.00338257
C        8.52876024       2.16683554      16.99931101       10       0.00065958       0.00096058      -0.01628592
C        9.74087359       2.86646627      16.99931101       10      -0.00074709       0.00075568      -0.00442537
C        7.31703811       4.26614495      16.99931101       10       0.00113579      -0.00033421      -0.04684193
C        8.52898558       4.96581493      16.99931101       10      -0.00160994       0.00138570      -0.01762397
C        6.10500162       6.36522792      16.99931101       10      -0.00018020      -0.00128773      -0.01961344
C        7.31702284       7.06503222      16.99931101       10      -0.00184255       0.00002912      -0.00448880
C        4.89317007       8.46472726      16.99931101       10       0.00168243       0.00036715       0.00451546
C        6.10517715       9.16455702      16.99931101       10      -0.00775366      -0.00329863      -0.00290190
