132
Lattice="12.12 0.0 0.0 -6.06 10.496227893867395 0.0 0.0 0.0 40.0" Properties=species:S:1:pos:R:3:tags:I:1:forces:R:3 stress="0.0028025473786206425 1.6017413296775117e-06 -1.1752127604493242e-06 1.6017413296775117e-06 0.0028037749534451178 1.89008556280063e-07 -1.1752127604493242e-06 1.89008556280063e-07 0.0019912382428566647" energy=-1208.5924568535725 pbc="T T F"
C        0.00066078       0.00079848      10.00202869        2      -0.00081972       0.00065409      -0.00004667
Ti       0.00215613       1.74914153       8.69146149        0      -0.00064413       0.00052767      -0.00249456
Ti       1.51578611       0.87535618      11.31154332        0       0.00097540      -0.00108944       0.00039517
O       -0.00070630       1.75024881      12.23008024        3       0.00085006      -0.00053598       0.15916700
O        1.51528016       0.87544486       7.77005667        1      -0.00017073      -0.00017505      -0.00094974
C       -1.51462309       2.62471665      10.00357491        2       0.00036703      -0.00012914      -0.00060370
Ti      -1.51506150       4.37494560       8.69072522        0       0.00033466      -0.00037509      -0.00256408
Ti      -0.00330853       3.50023962      11.31852400        0       0.00198252      -0.00006037      -0.00011435
O       -1.51641558       4.37480588      12.23008024        3       0.00039280       0.00055852       0.09803757
O       -0.00040748       3.49861795       7.77300973        1       0.00059848       0.00011405      -0.00248235
C       -3.02983157       5.25022005       9.99940941        2       0.00024759      -0.00142045      -0.00045743
Ti      -3.02985979       6.99901167       8.68865136        0      -0.00031049      -0.00126304      -0.00077583
Ti      -1.51522997       6.12416119      11.31108438        0      -0.00048595       0.00154214      -0.00048331
O       -3.03036915       6.99823811      12.23008024        3      -0.00025020      -0.00038180       0.10897348
O       -1.51466893       6.12323425       7.76978514        1      -0.00018162      -0.00014451      -0.00122534
C       -4.54467372       7.87264564      10.00070186        2       0.00011868      -0.00028013       0.00018173
Ti      -4.54503661       9.62220477       8.69096260        0      -0.00119700       0.00028607      -0.00069917
Ti      -3.03007989       8.74753773      11.31242349        0       0.00010491      -0.00026897       0.00127639
O       -4.54509394       9.62211981      12.23008024        3       0.00016463      -0.00043104       0.15392243
O       -3.02984004       8.74832353       7.76938572        1      -0.00078798      -0.00007857      -0.00084938
C        3.03071966       0.00082951      10.00140569        2      -0.00035311       0.00003391       0.00026315
Ti       3.03033433       1.75033216       8.69056415        0      -0.00093418       0.00078500      -0.00078410
Ti       4.54574192       0.87625283      11.31261334        0       0.00039310      -0.00017522       0.00098171
O        3.03055389       1.75084793      12.23008024        3       0.00006922       0.00018338       0.12751813
O        4.54499723       0.87531494       7.76935878        1      -0.00094628       0.00023497      -0.00049459
C        1.51514975       2.62457841      10.00206171        2      -0.00090919       0.00009084       0.00033645
Ti       1.51538600       4.37401690       8.69123100        0      -0.00105906      -0.00024873       0.00041240
Ti       3.03045031       3.50008650      11.31114857        0       0.00045828       0.00039296       0.00069778
O        1.51403888       4.37386804      12.23008024        3      -0.00002328      -0.00020993       0.10809914
O        3.02989423       3.49941335       7.76986949        1       0.00004993       0.00074493       0.00002252
C       -0.00022020       5.24898045      10.00156024        2      -0.00036140      -0.00075963       0.00087321
Ti       0.00045887       6.99810950       8.69064228        0      -0.00012680      -0.00085200      -0.00033119
Ti       1.51485207       6.12377982      11.31087159        0       0.00159949       0.00023829       0.00050212
O       -0.00000009       6.99813608      12.23008024        3       0.00005590      -0.00035011       0.12232979
O        1.51512574       6.12321701       7.77010026        1       0.00052313      -0.00038067       0.00009527
C       -1.51501021       7.87320628      10.00099371        2      -0.00021530      -0.00047648      -0.00019218
Ti      -1.51445496       9.62219929       8.68941177        0       0.00035479       0.00000271      -0.00172108
Ti       0.00044294       8.74728076      11.31150549        0      -0.00009969       0.00012327       0.00056754
O       -1.51451058       9.62251327      12.23008024        3       0.00015966      -0.00025244       0.10932682
O        0.00070163       8.74768387       7.76996200        1       0.00009722      -0.00037077      -0.00038684
C        6.06010214       0.00091605      10.00113199        2       0.00029639       0.00040330       0.00025661
Ti       6.05993977       1.74993831       8.68864836        0      -0.00025961       0.00110687      -0.00122591
Ti       7.57440113       0.87504782      11.31098259        0      -0.00141291      -0.00059938      -0.00090463
O        6.06078300       1.75089499      12.23008024        3      -0.00005034       0.00056332       0.11749635
O        7.57605369       0.87562402       7.77011184        1      -0.00051190      -0.00000241      -0.00127310
C        4.54577001       2.62478107      10.00045069        2      -0.00008899      -0.00005129       0.00030399
Ti       4.54536100       4.37381144       8.68941091        0       0.00092629      -0.00029782      -0.00008084
Ti       6.06211568       3.50026872      11.30897192        0      -0.00124518       0.00035961       0.00031862
O        4.54691240       4.37372180      12.23008024        3       0.00000749      -0.00009226       0.10958882
O        6.06068417       3.49926791       7.76889550        1      -0.00041369      -0.00003198       0.00003125
C        3.03021659       5.24840702      10.00130751        2       0.00067574       0.00088607       0.00055121
Ti       3.03024152       6.99835285       8.68872699        0      -0.00009733       0.00054174      -0.00121331
Ti       4.54545774       6.12326671      11.31188173        0      -0.00093888       0.00035600       0.00067656
O        3.03042444       6.99815479      12.23008024        3      -0.00017249       0.00042329       0.10887256
O        4.54537025       6.12355725       7.76979501        1      -0.00028527      -0.00000958      -0.00072686
C        1.51535399       7.87298929      10.00109966        2       0.00026424      -0.00023098       0.00045095
Ti       1.51558428       9.62231243       8.69095382        0       0.00056801      -0.00045238      -0.00106603
Ti       3.02993851       8.74766154      11.31066723        0       0.00038031      -0.00115373       0.00034896
O        1.51499978       9.62236274      12.23008024        3       0.00011276      -0.00050107       0.11155249
O        3.03064945       8.74818260       7.77041722        1       0.00028467      -0.00025253      -0.00055605
C        9.09026539       0.00113398      10.00197272        2       0.00038011       0.00052292       0.00014926
Ti       9.08999831       1.75069424       8.69006485        0       0.00016548      -0.00052393      -0.00243495
Ti      10.60248781       0.87725369      11.31932701        0       0.00084443      -0.00111789      -0.00048741
O        9.08822532       1.75090629      12.23008024        3      -0.00024962      -0.00067208       0.07505414
O       10.60581724       0.87630581       7.77322236        1       0.00031296      -0.00052780      -0.00362455
C        7.57487176       2.62458145       9.99907739        2       0.00088972       0.00029287      -0.00048359
Ti       7.57583069       4.37396776       8.68915877        0      -0.00007397       0.00018887      -0.00080280
Ti       9.09193220       3.49864193      11.30148361        0      -0.00053164       0.00023295      -0.00018276
O        7.57900929       4.37168234      12.23008024        3      -0.00000675      -0.00014135       0.15307227
O        9.09144492       3.49905575       7.76971357        1      -0.00022463      -0.00031284      -0.00504617
C        6.06122108       5.24835040      10.00040385        2      -0.00024825       0.00038840       0.00113348
Ti       6.06048407       6.99861172       8.68945159        0       0.00068200      -0.00036546      -0.00020906
Ti       7.57573033       6.12095095      11.31120425        0      -0.00051550       0.00053749       0.00014570
O        6.06099253       6.99712049      12.23008024        3       0.00024213       0.00029338       0.11577040
O        7.57550165       6.12354183       7.76908106        1       0.00003432       0.00062907      -0.00030750
C        4.54563577       7.87293351      10.00140773        2      -0.00025964      -0.00067521       0.00039353
Ti       4.54554145       9.62239117       8.69192839        0       0.00006833       0.00020251      -0.00064038
Ti       6.06003615       8.74713635      11.31121141        0       0.00014418      -0.00001899       0.00042609
O        4.54511389       9.62363192      12.23008024        3       0.00010997      -0.00013386       0.14080853
O        6.05998352       8.74815938       7.77003666        1       0.00026587      -0.00023079      -0.00027086
C        0.06930009       0.05286373      17.85394661       10       0.00050414       0.00020533      -0.02622679
C        1.27639121       0.75573917      17.86233484       10      -0.00170540      -0.00056865      -0.01901330
C       -1.12076171       2.13976428      17.82957595       10       0.00047492      -0.00056933       0.52251705
C        0.06601312       2.85276636      17.83721468       10      -0.00103415      -0.00084965      -0.04050288
C       -2.36284674       4.28936015      17.82957040       10       0.00176022       0.00005626       0.35783523
C       -1.15277206       4.96188460      17.83721213       10       0.00133538      -0.00000849      -0.01955940
C       -3.57584161       6.36771205      17.85394606       10       0.00013752       0.00015608      -0.02838894
C       -2.36312980       7.05982410      17.86233465       10      -0.00098448       0.00096138      -0.01733300
C       -4.78663708       8.45613104      17.85205368       10      -0.00012047       0.00084670      -0.03117909
C       -3.57489206       9.15529368      17.86334333       10      -0.00116175      -0.00143893      -0.03470019
C        2.48742857       0.05649367      17.86436835       10      -0.00115424      -0.00066395      -0.02360986
C        3.69658267       0.75738239      17.86334324       10      -0.00000841      -0.00106237      -0.03569935
C        1.28150388       2.15258933      17.85394683       10      -0.00073619       0.00011197      -0.03131544
C        2.48672344       2.85679607      17.84488669       10       0.00008332       0.00028240      -0.03798554
C        0.06344152       4.25799215      17.81108680       10       0.00146507      -0.00123999      -0.05929514
C        1.27085478       4.95554360      17.82275676       10       0.00065518      -0.00126847      -0.03452771
C       -1.15161906       6.36574201      17.85394606       10      -0.00130697       0.00050127      -0.01172662
C        0.06128432       7.05760988      17.84488680       10      -0.00190430       0.00090325      -0.02365129
C       -2.36325934       8.45842553      17.86436856       10       0.00104978       0.00112726      -0.02600707
C       -1.15200350       9.15524144      17.86334333       10       0.00171382       0.00028709      -0.03452900
C        4.90577264       0.05631767      17.86436835       10       0.00049010      -0.00031708      -0.02344260
C        6.11713765       0.75569647      17.86233484       10      -0.00007783      -0.00054957      -0.01666453
C        3.69615482       2.15635917      17.85205355       10       0.00027087       0.00005123      -0.02970007
C        4.90578377       2.85730495      17.84488669       10      -0.00029420       0.00153865      -0.01981663
C        2.48436091       4.25550227      17.83100320       10       0.00102433       0.00019224      -0.02929700
C        3.69658913       4.95641828      17.82821533       10      -0.00024713       0.00080455      -0.03317506
C        1.27122360       6.35681216      17.83100309       10      -0.00221961      -0.00102345      -0.03468519
C        2.48465187       7.05583940      17.82821523       10      -0.00048718      -0.00134905      -0.03169396
C        0.05953461       8.45573960      17.85205368       10       0.00061044       0.00074633      -0.02309070
C        1.27130601       9.15360270      17.84488655       10       0.00044012      -0.00067728      -0.02543580
C        7.32406155       0.05365135      17.85394661       10      -0.00040332      -0.00067911      -0.01551807
C        8.53932451       0.75649089      17.83721450       10       0.00001254      -0.00018679      -0.02412207
C        6.11027997       2.15195991      17.85394683       10      -0.00046745       0.00010658      -0.02627452
C        7.32677956       2.85185490      17.83721468       10       0.00034099      -0.00052446      -0.00754077
C        4.90809780       4.25510728      17.83100320       10      -0.00166157       0.00133807      -0.01529481
C        6.12128813       4.95601686      17.82275676       10      -0.00163879       0.00042078      -0.04388297
C        3.69642651       6.35608004      17.82513734       10       0.00155948       0.00000718      -0.03827602
C        4.90850264       7.05582449      17.82821523       10       0.00239216      -0.00024743      -0.04030352
C        2.48329782       8.45612816      17.83100292       10       0.00005248      -0.00010604      -0.04396502
C        3.69672556       9.15697159      17.82275635       10      -0.00032623       0.00178251      -0.03840447
C        9.75706276       0.05505105      17.81108676       10       0.00161585       0.00258675      -0.05341503
C       10.97514444       0.75538161      17.83721450       10      -0.00041223       0.00022076      -0.04675576
C        8.51661553       2.14074017      17.82957595       10       0.00150475      -0.00022912       0.36307351
C        9.75603810       2.85759637      17.58521668       10       0.00107653       0.00058605      -1.76082850
C        7.32904835       4.25881110      17.81108680       10      -0.00165070      -0.00002917      -0.06185688
C        8.54627599       4.96418072      17.83721213       10      -0.00086266      -0.00050371      -0.00260495
C        6.12154744       6.35726892      17.83100309       10       0.00269648      -0.00002060      -0.01760174
C        7.33088590       7.05812626      17.84488680       10       0.00074936       0.00147756      -0.02375055
C        4.90970591       8.45603065      17.83100292       10      -0.00064387       0.00076348      -0.03617419
C        6.12208456       9.15336475      17.84488655       10      -0.00287056      -0.00041101      -0.03754293
O        9.82795792       2.81337778      16.02825308       11       0.00653236      -0.00140555       0.00593958
H        9.05076196       3.26956441      15.65498591       12      -0.00625873       0.00253128      -0.00518934
