132
Lattice="12.12 0.0 0.0 -6.06 10.496227893867395 0.0 0.0 0.0 40.0" Properties=species:S:1:pos:R:3:tags:I:1:forces:R:3 stress="0.002813573430903447 -6.07737270665745e-07 7.149116051605565e-07 -6.07737270665745e-07 0.0028103788812575575 3.186851887889505e-07 7.149116051605565e-07 3.186851887889505e-07 0.0021664534684628723" energy=-1209.865993971629 pbc="T T F"
C        0.00238384       0.00170905       9.99895303        2       0.00120324       0.00058742      -0.00131961
Ti       0.00143938       1.75109523       8.69288742        0      -0.00078744       0.00100056      -0.00200055
Ti       1.51358909       0.87942786      11.30659186        0       0.00075192      -0.00051366      -0.00170214
O       -0.00011122       1.75110994      12.23008024        3       0.00040477      -0.00054856       0.06533881
O        1.51324812       0.87910876       7.76941983        1       0.00143186      -0.00032228      -0.00055137
C       -1.51649285       2.62861727      10.01255138        2       0.00062724       0.00060633      -0.00183875
Ti      -1.51618224       4.37909399       8.69308621        0       0.00072006       0.00000550      -0.00028497
Ti      -0.00458281       3.50230014      11.31336688        0       0.00140334      -0.00034882       0.00075569
O       -1.51590517       4.38044149      12.23008024        3       0.00028850       0.00015069      -0.01314634
O       -0.00300491       3.50187813       7.77512564        1       0.00011947       0.00018162      -0.00194882
C       -3.03129952       5.25404272      10.00430508        2       0.00091061       0.00068209      -0.00186906
Ti      -3.03143268       7.00259352       8.69207551        0      -0.00079013      -0.00114457       0.00075038
Ti      -1.51559738       6.12529167      11.31264975        0      -0.00064965       0.00279720      -0.00202373
O       -3.03052277       7.00099039      12.23008024        3      -0.00069449      -0.00060631       0.08419136
O       -1.51643726       6.12519272       7.77239919        1       0.00027894       0.00172670      -0.00037386
C       -4.54633309       7.87575570      10.00216173        2      -0.00027830       0.00011498      -0.00051032
Ti      -4.54558348       9.62421891       8.68932103        0      -0.00133092       0.00029529       0.00118531
Ti      -3.03141779       8.75157731      11.30534218        0       0.00055256       0.00010193       0.00031186
O       -4.54734937       9.62524809      12.23008024        3      -0.00005424       0.00032875       0.06650773
O       -3.03138462       8.74922859       7.76741090        1       0.00016171       0.00185618      -0.00057849
C        3.02917709       0.00307041      10.00155751        2      -0.00002506       0.00047840       0.00008632
Ti       3.02955491       1.75385700       8.69219617        0      -0.00097692       0.00182111       0.00002929
Ti       4.54508220       0.87815712      11.30524383        0      -0.00015991      -0.00065865       0.00085520
O        3.03195541       1.75376820      12.23008024        3      -0.00069596       0.00031091       0.08034766
O        4.54404115       0.87876833       7.76835559        1      -0.00156181      -0.00067808      -0.00028113
C        1.51561057       2.62694066      10.00233790        2      -0.00034140      -0.00040673      -0.00118289
Ti       1.51412485       4.37716729       8.69347403        0      -0.00224507      -0.00098122       0.00078450
Ti       3.02864527       3.50233529      11.30486752        0      -0.00028097       0.00077295       0.00002322
O        1.51260808       4.37792227      12.23008024        3      -0.00045572      -0.00038726       0.07781024
O        3.02801666       3.50282343       7.76997775        1       0.00029976       0.00155110      -0.00000286
C       -0.00055673       5.25275438      10.00357257        2      -0.00105446      -0.00030113       0.00035775
Ti      -0.00064790       7.00169378       8.69327726        0       0.00013982      -0.00147181       0.00063801
Ti       1.51396408       6.12639013      11.30555108        0       0.00206017      -0.00028976      -0.00075887
O       -0.00003077       7.00370848      12.23008024        3       0.00000286      -0.00042410       0.05349813
O        1.51345528       6.12561259       7.77074574        1       0.00008769      -0.00032260      -0.00056812
C       -1.51659259       7.87605525      10.00159076        2       0.00008136       0.00014250       0.00018193
Ti      -1.51667161       9.62472797       8.69030344        0       0.00061043       0.00007308      -0.00139055
Ti      -0.00001254       8.75169942      11.30470324        0      -0.00009776       0.00090718       0.00098232
O       -1.51394254       9.62478208      12.23008024        3       0.00024401      -0.00035667       0.06666986
O       -0.00128052       8.74982406       7.76798855        1       0.00024044      -0.00057701       0.00030598
C        6.05636908       0.00212475       9.99822069        2      -0.00015749      -0.00000687       0.00005637
Ti       6.05743413       1.75203732       8.69078548        0       0.00036734       0.00133171      -0.00054834
Ti       7.57563546       0.87965791      11.30060218        0      -0.00080912       0.00098603      -0.00246335
O        6.06038820       1.75215509      12.23008024        3      -0.00048628       0.00074831       0.07482267
O        7.57542163       0.87979318       7.77075972        1      -0.00100316      -0.00071154       0.00040341
C        4.54471706       2.62729382      10.00149956        2      -0.00066310       0.00081087      -0.00063602
Ti       4.54409776       4.37721394       8.69133163        0       0.00188896      -0.00077390       0.00064055
Ti       6.06060464       3.50080276      11.30888764        0      -0.00126342       0.00036240      -0.00024714
O        4.54568705       4.37616874      12.23008024        3      -0.00099598       0.00032521       0.05447714
O        6.06072098       3.50223102       7.77162962        1      -0.00016173       0.00032974       0.00046674
C        3.02921144       5.25195034      10.00265787        2       0.00019834       0.00061777      -0.00090968
Ti       3.02856861       7.00152625       8.69092442        0      -0.00069501       0.00132903      -0.00210906
Ti       4.54307773       6.12554340      11.30458472        0      -0.00133343       0.00069174       0.00017818
O        3.02799868       7.00237521      12.23008024        3      -0.00033362      -0.00000684       0.06029415
O        4.54315736       6.12634276       7.76923348        1       0.00036695       0.00048351      -0.00110809
C        1.51407216       7.87695340      10.00094636        2       0.00088086      -0.00037521      -0.00061460
Ti       1.51208623       9.62445891       8.68925655        0       0.00073721       0.00028627      -0.00071933
Ti       3.02979598       8.75309825      11.30545534        0       0.00126776      -0.00179889      -0.00044041
O        1.51196217       9.62554997      12.23008024        3       0.00060845      -0.00027217       0.06919267
O        3.02909380       8.75161619       7.76969963        1       0.00096914       0.00073334       0.00008585
C        9.08815786       0.00374304      10.00302579        2      -0.00004634       0.00148087       0.00076189
Ti       9.08831139       1.75257720       8.69305625        0       0.00074828      -0.00008813       0.00099010
Ti      10.60383330       0.88098449      11.29409271        0      -0.00018831      -0.00014285      -0.00145730
O        9.08901938       1.75146776      12.23008024        3       0.00021444       0.00004403       0.12108410
O       10.60365082       0.88083854       7.77209779        1       0.00023923      -0.00014988      -0.00164112
C        7.57361926       2.62710344      10.00570405        2       0.00024453      -0.00006547      -0.00144087
Ti       7.57351097       4.37836024       8.69322593        0       0.00085551      -0.00009431      -0.00088865
Ti       9.08793448       3.50570034      11.30388619        0       0.00030974      -0.00026981      -0.00020692
O        7.56988896       4.37881960      12.23008024        3       0.00108997      -0.00066200       0.01723393
O        9.09012399       3.50202869       7.77441864        1       0.00057209       0.00000220      -0.00294927
C        6.05754416       5.25216942      10.00040080        2       0.00054292       0.00009434       0.00174625
Ti       6.05795145       7.00036491       8.69151766        0       0.00219709      -0.00012991       0.00132573
Ti       7.57433854       6.12643012      11.30909056        0      -0.00047217      -0.00027329       0.00004601
O        6.05761641       6.99880648      12.23008024        3       0.00041057       0.00138633       0.07575398
O        7.57441789       6.12553456       7.77111028        1       0.00035378       0.00098184       0.00051145
C        4.54360991       7.87646477      10.00143529        2       0.00000659      -0.00017470      -0.00037310
Ti       4.54502262       9.62523622       8.69029558        0       0.00097447       0.00163775       0.00058092
Ti       6.05694797       8.75124202      11.30563670        0       0.00012229       0.00128699       0.00021194
O        4.54413315       9.62790857      12.23008024        3       0.00072802       0.00074993       0.08421283
O        6.05852397       8.75043406       7.76853545        1       0.00017400      -0.00073807       0.00048216
C        0.06177402       0.06823232      17.11548508       10       0.00029551      -0.00168991       0.01403481
C        1.26754174       0.77242319      17.12387331       10       0.00031841      -0.00095464       0.01710755
C       -1.13101510       2.15691549      17.09111441       10      -0.00097400       0.00014905       0.35269248
C        0.05622519       2.86979195      17.09875315       10      -0.00063248      -0.00096979       0.02100486
C       -2.37200680       4.30895306      17.09110886       10       0.00074569       0.00069336       0.55316436
C       -1.15998980       4.97970727      17.09875059       10       0.00134486       0.00028319      -0.01867954
C       -3.58477787       6.38235267      17.11548453       10       0.00043093      -0.00048443      -0.01999283
C       -2.37174262       7.07628061      17.12387311       10      -0.00028810       0.00067801      -0.01511936
C       -4.79519338       8.47189472      17.11359214       10      -0.00080217      -0.00023807      -0.00463998
C       -3.58352125       9.17181083      17.12488180       10       0.00010831      -0.00009738      -0.01569651
C        2.47873203       0.07316743      17.12590682       10       0.00030712      -0.00059975       0.00395663
C        3.68781660       0.77367315      17.12488171       10       0.00014336      -0.00049337      -0.01385526
C        1.27224536       2.16850657      17.11548529       10      -0.00034972      -0.00054011       0.00172172
C        2.47781672       2.87327283      17.10642516       10       0.00009845      -0.00014801      -0.00414410
C        0.05526737       4.27505871      17.07262527       10       0.00059689      -0.00137698      -0.01497230
C        1.26266471       4.97217353      17.08429522       10       0.00046657      -0.00174669      -0.02628866
C       -1.15943203       6.38258466      17.11548453       10      -0.00068453       0.00010611      -0.00961515
C        0.05284203       7.07414459      17.10642526       10      -0.00078579      -0.00039005      -0.06491727
C       -2.37202398       8.47476574      17.12590703       10       0.00059360       0.00071067      -0.00256384
C       -1.16060063       9.17134086      17.12488180       10       0.00048851       0.00061803      -0.02697375
C        4.89679979       0.07299861      17.12590682       10       0.00018507      -0.00007658      -0.00456140
C        6.10782072       0.77226749      17.12387331       10      -0.00019987      -0.00062963      -0.01184965
C        3.68785151       2.17272886      17.11359201       10      -0.00033613      -0.00042351      -0.01944399
C        4.89790060       2.87323395      17.10642516       10      -0.00161446       0.00085489      -0.00823727
C        2.47630929       4.27163832      17.09254166       10       0.00073832       0.00009161      -0.01229485
C        3.68812682       4.97286087      17.08975380       10      -0.00075091       0.00178375      -0.02570424
C        1.26290824       6.37297577      17.09254156       10      -0.00057654      -0.00169746      -0.00530499
C        2.47574515       7.07194265      17.08975369       10       0.00021959      -0.00118771      -0.02656878
C        0.05083358       8.47165403      17.11359214       10      -0.00052590      -0.00052863       0.00036955
C        1.26229969       9.16830064      17.10642501       10      -0.00070204      -0.00163420      -0.00829963
C        7.31326272       0.06803655      17.11548508       10      -0.00017022      -0.00174732      -0.02266895
C        8.52788158       0.77082996      17.09875296       10       0.00020197      -0.00114417       0.03314443
C        6.10303165       2.16881350      17.11548529       10      -0.00158061      -0.00023493      -0.02667243
C        7.31893500       2.87000207      17.09875315       10      -0.00125416      -0.00092328       0.01422096
C        4.90031884       4.27140901      17.09254166       10      -0.00244787       0.00096474      -0.04166001
C        6.11328450       4.97186156      17.08429522       10      -0.00145420      -0.00072401      -0.01888385
C        3.68796257       6.37200710      17.08667580       10       0.00168703       0.00094722      -0.03057678
C        4.89964368       7.07185238      17.08975369       10       0.00220944      -0.00044840      -0.01256535
C        2.47423223       8.47170615      17.09254139       10      -0.00069998      -0.00094041      -0.00189607
C        3.68792727       9.17167721      17.08429481       10      -0.00134542       0.00079548      -0.02458781
C        9.74789435       0.06984911      17.07262522       10       0.00127605       0.00078139      -0.04044020
C       10.96739251       0.77139703      17.09875296       10       0.00169245       0.00022372       0.03540823
C        8.50520548       2.15677156      17.09111441       10      -0.00078515      -0.00099852       0.35202848
C        9.74673089       2.87134248      16.84675515       10      -0.00035322       0.00102436      -1.74896682
C        7.32065530       4.27535794      17.07262527       10      -0.00133304      -0.00095895      -0.05421880
C        8.53637805       4.97981233      17.09875059       10      -0.00010484      -0.00085546      -0.01191429
C        6.11287217       6.37274025      17.09254156       10       0.00198608      -0.00086301      -0.02543444
C        7.32303661       7.07408022      17.10642526       10       0.00140489      -0.00026042      -0.01094726
C        4.90171653       8.47180285      17.09254139       10      -0.00219311      -0.00085291       0.00475098
C        6.11330169       9.16898312      17.10642501       10      -0.00184394      -0.00162577       0.01221689
O        9.74607503       2.96033034      15.29947672       11      -0.00074375       0.00452682      -0.00121822
H        9.68126342       2.06915521      14.90305391       12      -0.00060685      -0.00286758       0.00046779
