131
Lattice="12.12 0.0 0.0 -6.06 10.496227893867395 0.0 0.0 0.0 40.0" Properties=species:S:1:pos:R:3:tags:I:1:forces:R:3 stress="0.002770348964730837 1.949443851776586e-07 -1.290091169057369e-06 1.949443851776586e-07 0.0027693266365125878 -2.68740119887367e-06 -1.290091169057369e-06 -2.68740119887367e-06 0.00290132335698409" energy=-1204.9709348522836 pbc="T T F"
C        0.24814900      -0.09391866       9.99167642        2      -0.00109819      -0.00007402       0.00195954
Ti       0.25641253       1.64735873       8.70420152        0       0.00038412      -0.00149221       0.00442434
Ti       1.78090804       0.79258610      11.27094501        0       0.00273511      -0.00109005      -0.00131100
O        0.23829023       1.66489647      12.23008024        3       0.00148759       0.00030418      -0.29211144
O        1.78109268       0.76344852       7.78745919        1       0.00099814      -0.00006710      -0.00116961
C       -1.25958917       2.52384343       9.99506434        2      -0.00160300      -0.00083111       0.00176896
Ti      -1.26100409       4.27512636       8.70432075        0      -0.00052846       0.00327996       0.00181293
Ti       0.25106567       3.39612241      11.30768650        0       0.00241092       0.00013618      -0.00261400
O       -1.25467256       4.25036771      12.23008024        3       0.00215680      -0.00106434      -0.29245732
O        0.25564522       3.39901807       7.76654145        1       0.00001919      -0.00272159      -0.00031421
C       -2.77287247       5.13822987       9.99097426        2      -0.00109807      -0.00210586       0.00233296
Ti      -2.77283555       6.90758043       8.77043481        0       0.00003913      -0.00116663      -0.00029035
Ti      -1.23858171       6.02219444      11.27099695        0      -0.00116240      -0.00020598      -0.00382288
O       -2.77278302       6.72549005      12.23008024        3       0.00099090      -0.00056296      -0.19222467
O       -1.26379154       6.03769342       7.78729619        1      -0.00040357       0.00100543       0.00176860
C       -4.28992323       7.77170880      10.06194994        2       0.00032842      -0.00140915      -0.00053952
Ti      -4.27991967       9.51817234       8.77055647        0       0.00184281      -0.00146998      -0.00112970
Ti      -2.77432584       8.64476500      11.80721777        0      -0.00196930      -0.00140827      -0.00123158
O       -4.43293321       9.60699419      12.23008024        3       0.00226828      -0.00184828      -0.17314465
O       -2.77316893       8.64740893       7.83622419        1      -0.00142767       0.00161761      -0.00161842
C        3.28652538      -0.09605768      10.06049483        2       0.00110387       0.00005423      -0.00162354
Ti       3.28703343       1.65712045       8.70075378        0      -0.00091216      -0.00074495      -0.00252939
Ti       4.79233427       0.79183557      11.27082962        0      -0.00098121       0.00123350       0.00107292
O        3.28685462       1.67085069      12.23008024        3      -0.00101643      -0.00004594      -0.20929555
O        4.79268071       0.76309909       7.78755805        1      -0.00056647       0.00076167      -0.00054348
C        1.76938621       2.53397898       9.99457915        2      -0.00237827       0.00054509       0.00219865
Ti       1.76899933       4.27277227       8.70814193        0      -0.00199234      -0.00215179       0.00112392
Ti       3.28693920       3.40632447      11.29368235        0       0.00034110      -0.00241311       0.00145164
O        1.77379021       4.27517568      12.23008024        3      -0.00179903      -0.00046813      -0.24785282
O        3.28750440       3.39284585       7.76754327        1      -0.00242590      -0.00348896      -0.00023033
C        0.26354632       5.14201880       9.99470813        2      -0.00029660      -0.00214855       0.00226224
Ti       0.26256797       6.89513506       8.70083338        0       0.00062674      -0.00154139      -0.00059347
Ti       1.77770979       6.02003397      11.29429348        0      -0.00182048       0.00175771      -0.00132041
O        0.27453603       6.88781544      12.23008024        3      -0.00030932      -0.00036986      -0.20581747
O        1.76598946       6.02779446       7.76775980        1      -0.00197899      -0.00082106       0.00029993
C       -1.25598665       7.77111485      10.06118717        2      -0.00053173       0.00002906       0.00179857
Ti      -1.26674141       9.51754764       8.77035943        0       0.00289863       0.00175041      -0.00125391
Ti       0.26639626       8.63130340      11.27125097        0      -0.00097400      -0.00037989      -0.00220489
O       -1.11598566       9.60504120      12.23008024        3      -0.00160812      -0.00253296      -0.16383334
O        0.24152300       8.64572730       7.78766152        1       0.00031620      -0.00000945       0.00144608
C        6.32511613      -0.09446683       9.99207806        2       0.00165505       0.00123745       0.00283017
Ti       6.31728814       1.64684879       8.70474352        0       0.00015028       0.00027889       0.00238018
Ti       7.83192071       0.77559473      11.30394777        0      -0.00287109      -0.00066737       0.00037203
O        6.33501201       1.66458391      12.23008024        3      -0.00009515      -0.00116983      -0.29145120
O        7.83187458       0.77532875       7.76571400        1      -0.00113900      -0.00025005      -0.00198524
C        4.80459220       2.53359265       9.99480750        2       0.00129429       0.00111063       0.00199142
Ti       4.80584059       4.27248112       8.70834262        0      -0.00184217       0.00001974       0.00046546
Ti       6.32262461       3.39598063      11.30811812        0      -0.00071217      -0.00108357      -0.00142045
O        4.80014452       4.27525688      12.23008024        3       0.00056925      -0.00004594      -0.24864975
O        6.31884251       3.39841453       7.76697590        1      -0.00140035       0.00028822      -0.00106932
C        3.28712956       5.14910109       9.99434061        2      -0.00028479      -0.00054593       0.00255413
Ti       3.28712449       6.90246966       8.70886328        0       0.00016860      -0.00071714      -0.00012104
Ti       4.79641621       6.02026760      11.29423130        0       0.00169331       0.00087974       0.00061057
O        3.28700573       6.89567083      12.23008024        3      -0.00020509       0.00305404      -0.24731323
O        4.80851152       6.02755374       7.76804180        1       0.00083713       0.00105838      -0.00030585
C        1.78073016       7.77100494       9.99529835        2       0.00125970       0.00058704       0.00237990
Ti       1.76927561       9.52444120       8.70503343        0      -0.00192333      -0.00161563       0.00238604
Ti       3.28664474       8.65425209      11.30852028        0       0.00077536      -0.00034706      -0.00378499
O        1.79322984       9.53110130      12.23008024        3       0.00080218      -0.00135823      -0.28822110
O        3.28668085       8.64984677       7.76732165        1       0.00206134      -0.00124432      -0.00165983
C        9.34676275      -0.09737993       9.99559105        2       0.00007879       0.00117874       0.00104474
Ti       9.34669339       1.65000940       8.71018479        0       0.00112344       0.00016613       0.00312890
Ti      10.86181288       0.77558545      11.30381329        0       0.00056115      -0.00010709      -0.00084763
O        9.34683975       1.65003798      12.23008024        3      -0.00015231       0.00002278      -0.22930630
O       10.86162532       0.77571547       7.76559240        1       0.00202866      -0.00209328      -0.00315039
C        7.83342441       2.52366376       9.99541220        2       0.00196136      -0.00065119      -0.00021973
Ti       7.83541033       4.27522750       8.70464603        0      -0.00156255       0.00096009       0.00106458
Ti       9.34693409       3.39921908      11.30343669        0      -0.00065342       0.00086243       0.00127257
O        7.82844586       4.25030494      12.23008024        3       0.00000427      -0.00049996      -0.29198557
O        9.34710479       3.39894374       7.76534273        1      -0.00131697       0.00205149      -0.00258111
C        6.31075514       5.14206914       9.99492602        2      -0.00087729      -0.00242449       0.00174130
Ti       6.31159488       6.89522748       8.70113742        0      -0.00085027      -0.00061553      -0.00011399
Ti       7.81269217       6.02227200      11.27083199        0      -0.00084664      -0.00065487      -0.00004176
O        6.29957449       6.88806622      12.23008024        3      -0.00089191      -0.00028540      -0.20603149
O        7.83797054       6.03773714       7.78774160        1      -0.00152407       0.00138027      -0.00048320
C        4.79307189       7.77108827       9.99531284        2      -0.00194345       0.00063834       0.00149807
Ti       4.80439008       9.52469896       8.70479490        0       0.00083369      -0.00162006       0.00394417
Ti       6.30679189       8.63158373      11.27124736        0       0.00116744      -0.00174212      -0.00095820
O        4.78001037       9.53123994      12.23008024        3      -0.00043262      -0.00066256      -0.28866615
O        6.33216935       8.64595947       7.78799418        1       0.00005262      -0.00230970      -0.00122124
C       -0.36151076       0.22519684      15.60790772       10      -0.00085071      -0.00037180       0.11317536
C        0.84909547       0.92471805      15.59261567       10       0.00093478       0.00077903       0.10055553
C       -1.57134977       2.32370179      15.61322842       10      -0.00011574      -0.00142379       0.09802588
C       -0.35958354       3.02338279      15.59551799       10      -0.00114985      -0.00117996       0.09205801
C       -2.78367971       4.42071374      15.60790772       10      -0.00003321       0.00138493       0.11170302
C       -1.57272584       5.11961141      15.59261567       10       0.00074798       0.00006320       0.10014405
C       -3.99027521       6.52521763      15.54479697       10      -0.00093245       0.00038126       0.11458474
C       -2.78364412       7.20920954      15.50297475       10      -0.00014744       0.00111059      -0.50077716
C       -5.20253100       8.62421595      15.54479697       10      -0.00113776      -0.00025810       0.11562214
C       -4.00732033       9.32770987      15.50297475       10       0.00168867      -0.00035914      -0.46845998
C        2.06418834       0.21831762      15.54479697       10       0.00110723       0.00092602       0.11643857
C        3.27637712       0.92404413      15.51271829       10      -0.00156923      -0.00002009       0.28623112
C        0.85224408       2.32238920      15.58157270       10       0.00109082      -0.00018103       0.06627556
C        2.06413673       3.02217826      15.55965829       10      -0.00190640       0.00146636       0.05326535
C       -0.36073645       4.42338260      15.58157270       10      -0.00046526      -0.00011614       0.06697491
C        0.85144312       5.12263205      15.55965829       10      -0.00134103      -0.00002465       0.05163471
C       -1.57700859       6.52522312      15.54479697       10      -0.00035734       0.00066012       0.11472722
C       -0.35956674       7.22166139      15.51271829       10       0.00109687       0.00026092       0.28708915
C       -2.78323147       8.62240338      15.05016909       10       0.00033319       0.00046875       0.86811250
C       -1.55962505       9.32794945      15.50297475       10       0.00024798      -0.00117736      -0.44846507
C        4.48859930       0.21844850      15.54479697       10       0.00084821       0.00178193       0.11725532
C        5.70368313       0.92475030      15.59261567       10       0.00015061       0.00078329       0.10071712
C        3.27630544       2.31993566      15.54505200       10       0.00175967       0.00011501       0.00791236
C        4.48855295       3.02212423      15.55965829       10      -0.00101538       0.00260811       0.05264987
C        2.06365497       4.42218417      15.55697668       10       0.00070318       0.00043075       0.09131914
C        3.27635775       5.12224906      15.55197591       10      -0.00163228       0.00125571       0.09698413
C        0.84923075       6.52351407      15.54505200       10       0.00171321       0.00065320       0.00856938
C        2.06354777       7.22205742      15.55965829       10       0.00156677       0.00154296       0.05045841
C       -0.36460700       8.62424822      15.54479697       10       0.00075859       0.00059568       0.11650468
C        0.85468306       9.32326504      15.59261567       10       0.00132318      -0.00074716       0.10027455
C        6.91426234       0.22516524      15.60790772       10      -0.00069151       0.00173707       0.11423348
C        8.12558106       0.92453794      15.61484624       10       0.00052748       0.00066876       0.07863985
C        5.70043204       2.32235460      15.58157270       10      -0.00032602       0.00137376       0.06630448
C        6.91223266       3.02332697      15.59551799       10       0.00259156       0.00054378       0.09198397
C        4.48900950       4.42215621      15.55697668       10       0.00027925       0.00034171       0.09060277
C        5.70121025       5.12263630      15.55965829       10       0.00082220       0.00042294       0.05029138
C        3.27629616       6.52248628      15.55697668       10       0.00109091      -0.00025634       0.08956406
C        4.48903540       7.22208981      15.55965829       10      -0.00035563       0.00106385       0.04970386
C        2.06332973       8.62148084      15.58157270       10       0.00268540       0.00184867       0.06746618
C        3.27631516       9.32050171      15.59551799       10       0.00119297       0.00217667       0.09187002
C        9.33638536       0.22355460      15.61322842       10      -0.00118377       0.00244896       0.10199249
C       10.54711907       0.92458345      15.61484624       10       0.00133938       0.00043329       0.07824266
C        8.12401009       2.32364423      15.61322842       10      -0.00016813       0.00105534       0.09941667
C        9.33631177       3.02187474      15.61484624       10       0.00079624       0.00087646       0.07732241
C        6.91338906       4.42336775      15.58157270       10       0.00063501      -0.00010370       0.06746244
C        8.12537200       5.11956740      15.59261567       10       0.00089603       0.00157543       0.09979296
C        5.70338724       6.52356013      15.54505200       10      -0.00060551      -0.00070011       0.00919294
C        6.91225341       7.22160471      15.51271829       10      -0.00157164       0.00204988       0.28762949
C        4.48933696       8.62151849      15.58157270       10      -0.00055347       0.00109799       0.06787060
C        5.69805617       9.32324866      15.59261567       10       0.00189084       0.00073745       0.09981627
O       -2.77887421       8.63306622      13.67092933       11      -0.00232798      -0.00170503      -0.00367835
