132
Lattice="12.12 0.0 0.0 -6.06 10.496227893867395 0.0 0.0 0.0 40.0" Properties=species:S:1:pos:R:3:tags:I:1:forces:R:3 stress="0.002886372240413101 2.436721057354778e-06 -1.3534815080797156e-07 2.436721057354778e-06 0.002877623544419491 -1.0779521027550746e-06 -1.3534815080797156e-07 -1.0779521027550746e-06 0.002440366846830176" energy=-1210.684105756191 pbc="T T F"
C        0.00021182       0.00326481      10.00436040        2      -0.00002703       0.00067279       0.00010864
Ti       0.00028894       1.75423813       8.71756818        0      -0.00029905      -0.00041431       0.00152446
Ti       1.51561325       0.87901110      11.29863386        0      -0.00020884       0.00037990      -0.00073878
O        0.00082121       1.74922101      12.23008024        3       0.00112616       0.00008780       0.09287226
O        1.51250808       0.88036769       7.77714538        1       0.00058182      -0.00030056       0.00064666
C       -1.51599287       2.62949208      10.01479106        2       0.00001626       0.00037215      -0.00215618
Ti      -1.51550723       4.37843465       8.72216060        0      -0.00067710      -0.00054110      -0.00032181
Ti      -0.00271320       3.50184445      11.31154216        0       0.00100192       0.00110598       0.00100367
O       -1.51120942       4.38666036      12.23008024        3      -0.00144563      -0.00064282      -0.04848092
O       -0.00277962       3.50306885       7.78156037        1       0.00114694       0.00124258      -0.00085133
C       -3.03032308       5.25304672      10.01058098        2      -0.00036611      -0.00041506      -0.00119600
Ti      -3.03022783       7.00269340       8.71681600        0       0.00025214      -0.00071791       0.00175782
Ti      -1.51474343       6.12681613      11.30328462        0      -0.00046282      -0.00246086       0.00298023
O       -3.03121302       7.00457053      12.23008024        3      -0.00032391      -0.00085043       0.09634636
O       -1.51606723       6.12490293       7.77956834        1       0.00089767       0.00028692       0.00098443
C       -4.54535680       7.87706649      10.00391715        2      -0.00025098       0.00032296       0.00022972
Ti      -4.54541265       9.62564326       8.71461101        0       0.00012088       0.00094186       0.00067966
Ti      -3.03076281       8.75178251      11.29704164        0       0.00179264      -0.00056520      -0.00042756
O       -4.54554131       9.62548968      12.23008024        3       0.00052258       0.00031827       0.10456865
O       -3.03073305       8.75012775       7.77545611        1      -0.00027736       0.00006814      -0.00072079
C        3.02979381       0.00396680      10.00295862        2       0.00112475      -0.00032024      -0.00164426
Ti       3.02962719       1.75391457       8.71519754        0      -0.00004599      -0.00038051      -0.00050540
Ti       4.54336985       0.87923375      11.29726863        0       0.00115109      -0.00138622      -0.00094030
O        3.02972600       1.75333488      12.23008024        3      -0.00031734      -0.00070225       0.09994782
O        4.54517140       0.88025640       7.77585312        1      -0.00004067       0.00000554       0.00029396
C        1.51433191       2.62818051      10.00704979        2      -0.00040135      -0.00013920      -0.00105532
Ti       1.51384945       4.37770590       8.71821762        0       0.00127402      -0.00023402      -0.00004988
Ti       3.02907018       3.50299725      11.29736218        0      -0.00069151      -0.00044403       0.00219610
O        1.51771281       4.37975122      12.23008024        3      -0.00040516      -0.00100233       0.11040936
O        3.02872247       3.50352927       7.77752894        1      -0.00079042       0.00079153       0.00025613
C       -0.00018325       5.25323406      10.00826891        2      -0.00111996      -0.00174866      -0.00090755
Ti      -0.00074253       7.00212595       8.71641714        0      -0.00031938       0.00008899       0.00121156
Ti       1.51493920       6.12767004      11.29825828        0       0.00041688      -0.00089958       0.00165170
O        0.00200255       7.00569833      12.23008024        3      -0.00115474      -0.00260452       0.09947126
O        1.51377232       6.12660176       7.77757137        1      -0.00057445      -0.00173469       0.00044471
C       -1.51561023       7.87869440      10.00364137        2       0.00100803      -0.00023114      -0.00055994
Ti      -1.51570923       9.62584566       8.71407088        0       0.00123245       0.00031667      -0.00049041
Ti      -0.00072291       8.75192543      11.29753356        0      -0.00003952      -0.00022261       0.00159513
O       -1.51575288       9.62599557      12.23008024        3       0.00033719      -0.00035269       0.08804309
O       -0.00012320       8.75079893       7.77577233        1       0.00075173      -0.00040929      -0.00000744
C        6.05853280       0.00381457      10.00329956        2       0.00115683      -0.00001732      -0.00004480
Ti       6.05906930       1.75351525       8.71568212        0       0.00053518      -0.00018407       0.00110443
Ti       7.57070666       0.87608227      11.29089602        0       0.00352893       0.00214741       0.00552897
O        6.05747095       1.75222706      12.23008024        3       0.00054408       0.00083775       0.08231518
O        7.57660832       0.88123089       7.77830275        1      -0.00004191      -0.00081770       0.00238575
C        4.54391898       2.62782307      10.00433801        2      -0.00006102      -0.00013427      -0.00008763
Ti       4.54446353       4.37750846       8.71602668        0       0.00121200      -0.00052391       0.00015799
Ti       6.05996716       3.50180867      11.30097395        0      -0.00044801       0.00078170       0.00293094
O        4.54276174       4.37832837      12.23008024        3      -0.00026363       0.00040270       0.09044522
O        6.06156992       3.50325417       7.77882343        1       0.00004446       0.00051253       0.00162055
C        3.02928559       5.25235186      10.00471820        2       0.00056163      -0.00018620      -0.00182505
Ti       3.02929177       7.00146855       8.71525362        0      -0.00011664       0.00069831      -0.00106988
Ti       4.54426591       6.12668023      11.29846057        0      -0.00204201       0.00041122      -0.00107141
O        3.03006035       7.00206127      12.23008024        3       0.00020880      -0.00038270       0.08712327
O        4.54463724       6.12671149       7.77688112        1       0.00106447      -0.00036143      -0.00092271
C        1.51435366       7.87675792      10.00385886        2      -0.00031355       0.00000949      -0.00043835
Ti       1.51430525       9.62590746       8.71455902        0      -0.00044144       0.00047319       0.00008330
Ti       3.03003923       8.75138960      11.29845517        0       0.00056035      -0.00067199       0.00057395
O        1.51503055       9.62473007      12.23008024        3       0.00184616       0.00165870       0.08935747
O        3.02944435       8.75166907       7.77627057        1       0.00114066       0.00124724       0.00083784
C        9.08943070       0.00374138      10.00532007        2       0.00140474       0.00170263       0.00072605
Ti       9.08918743       1.75453523       8.72188883        0      -0.00027155       0.00042997      -0.00068599
Ti      10.61015044       0.87475532      11.28930781        0      -0.00024792       0.00013401       0.00307863
O        9.08950611       1.74610550      12.23008024        3       0.00041347       0.00205311       0.30063018
O       10.60358697       0.88153888       7.77934191        1      -0.00073420      -0.00129052       0.00013332
C        7.57576627       2.62866310      10.01065336        2       0.00084617       0.00112796      -0.00028417
Ti       7.57494375       4.37766284       8.71907274        0      -0.00138621       0.00077853      -0.00242354
Ti       9.09102823       3.50870453      11.31062652        0      -0.00251949       0.00220066      -0.00534636
O        7.56854549       4.37958636      12.23008024        3      -0.00097970       0.00153785       0.07654206
O        9.09071039       3.50274328       7.78225645        1      -0.00075789      -0.00005971       0.00015674
C        6.05967902       5.25228227      10.00565117        2      -0.00016878       0.00011130      -0.00087887
Ti       6.05962330       7.00145388       8.71563707        0       0.00097627      -0.00062824       0.00018629
Ti       7.57415088       6.12700217      11.30070712        0      -0.00013858       0.00018412       0.00159249
O        6.05842992       7.00173960      12.23008024        3      -0.00075115       0.00010531       0.10057969
O        7.57555258       6.12552210       7.77860601        1      -0.00011292      -0.00009544       0.00064684
C        4.54474437       7.87634211      10.00394654        2       0.00040470      -0.00027142      -0.00108503
Ti       4.54428413       9.62585430       8.71350418        0       0.00089010      -0.00079086      -0.00000830
Ti       6.05955487       8.74977483      11.29762670        0       0.00077692       0.00055976       0.00119335
O        4.54448308       9.62184812      12.23008024        3       0.00094953       0.00044409       0.08107698
O        6.05910758       8.75107472       7.77595594        1      -0.00052787       0.00056339       0.00000823
C        0.05880155       0.06777551      16.62317738       10       0.00108586       0.00176729      -0.00169703
C        1.26776902       0.76993916      16.63156561       10       0.00213229       0.00141301       0.00143361
C       -1.13913445       2.15719737      16.59880671       10      -0.00099281       0.00122032       0.29023885
C        0.05472358       2.86787786      16.60644545       10       0.00083962      -0.00288026       0.03077113
C       -2.37201490       4.29499465      16.59880116       10       0.00050785       0.00191809       0.49828996
C       -1.16069811       4.97328013      16.60644289       10       0.00040602       0.00170459       0.01430189
C       -3.58351929       6.37696331      16.62317683       10       0.00358796      -0.00316524      -0.03702659
C       -2.37118029       7.07276131      16.63156541       10       0.00110865       0.00227435      -0.00230339
C       -4.79417973       8.46928853      16.62128444       10      -0.00381248      -0.00254328      -0.01182767
C       -3.58247556       9.16887895      16.63257410       10      -0.00600264      -0.00166044      -0.03680270
C        2.47881833       0.07108956      16.63359912       10       0.00118546      -0.00167707      -0.02283146
C        3.68910603       0.77170981      16.63257401       10      -0.00069316      -0.00116504      -0.03882911
C        1.27012236       2.16834322      16.62317759       10       0.00182553      -0.00143144      -0.01169854
C        2.47811909       2.87075693      16.61411746       10       0.00132442      -0.00068059      -0.04035798
C        0.05295756       4.27014749      16.58031757       10      -0.00025652      -0.00298741       0.15365000
C        1.26367447       4.96916778      16.59198752       10      -0.00081405      -0.00110566      -0.07950381
C       -1.15903981       6.37590046      16.62317683       10       0.00038564       0.00090140      -0.03078663
C        0.05322771       7.07011748      16.61411756       10      -0.00186816       0.00121813      -0.03726906
C       -2.37066912       8.47043878      16.63359933       10      -0.00188220       0.00515235      -0.02661854
C       -1.15905045       9.16850986      16.63257410       10       0.00025243       0.00017160      -0.03148359
C        4.89947671       0.07073773      16.63359912       10       0.00102529       0.00057857      -0.02602779
C        6.11029788       0.77012939      16.63156561       10       0.00090271       0.00144789       0.00296243
C        3.68897210       2.17093827      16.62128431       10       0.00088257      -0.00471710      -0.02095187
C        4.90005944       2.87074668      16.61411746       10      -0.00182299       0.00404948      -0.02305106
C        2.47702524       4.27028134      16.60023396       10      -0.00155569      -0.00194054      -0.03909389
C        3.68907723       4.96992139      16.59744610       10      -0.00069476      -0.00156143      -0.00922933
C        1.26430565       6.36935304      16.60023386       10      -0.00140988      -0.00010666      -0.03517957
C        2.47643795       7.06897642      16.59744599       10      -0.00034265      -0.00115844      -0.01209485
C        0.05251125       8.46849781      16.62128444       10       0.00069827       0.00181692      -0.00765110
C        1.26395404       9.16719156      16.61411731       10       0.00352784      -0.00139308      -0.02731863
C        7.31948298       0.06793908      16.62317738       10      -0.00168861      -0.00054318      -0.00634779
C        8.53329755       0.77050682      16.60644526       10       0.00171494       0.00052911       0.01930345
C        6.10813125       2.16862357      16.62317759       10      -0.00280625      -0.00191007      -0.01865463
C        7.32415891       2.86822166      16.60644545       10       0.00018976      -0.00278227       0.03530310
C        4.90104380       4.27018906      16.60023396       10      -0.00018890       0.00095498      -0.04045804
C        6.11483724       4.96919731      16.59198752       10       0.00085378       0.00264108      -0.05220661
C        3.68871090       6.36950553      16.59436810       10      -0.00316729      -0.00229671      -0.04754152
C        4.90118554       7.06917824      16.59744599       10      -0.00055096       0.00055595      -0.01371956
C        2.47641186       8.46850833      16.60023369       10       0.00175951      -0.00225754      -0.03912646
C        3.68906160       9.16969585      16.59198711       10       0.00173482       0.00158056      -0.07429877
C        9.74892723       0.07142363      16.58031752       10      -0.00123122       0.00028520       0.13739019
C       10.96475650       0.76978412      16.60644526       10       0.00006996       0.00065362       0.01012042
C        8.51695681       2.15828233      16.59880671       10       0.00072300       0.00016031       0.24858975
C        9.74741867       2.86756752      16.35444745       10       0.00011115       0.00399539      -2.12756405
C        7.32588413       4.27053256      16.58031757       10      -0.00074692      -0.00475630       0.12780925
C        8.53863281       4.97421765      16.60644289       10      -0.00179412      -0.00080520       0.04983463
C        6.11330486       6.36990245      16.60023386       10       0.00067333       0.00067591      -0.04763937
C        7.32430572       7.07113414      16.61411756       10       0.00216153      -0.00113443      -0.03281867
C        4.90151720       8.46870155      16.60023369       10      -0.00371843      -0.00028967      -0.03494480
C        6.11413932       9.16732197      16.61411731       10      -0.00223333       0.00140039      -0.03732485
O        9.81805931       2.96260984      14.79649720       11      -0.00105216       0.00836708       0.00119351
H        9.49994692       2.16314761      14.32948034       12      -0.00160085      -0.00246351      -0.00192603
