130
Lattice="12.12 0.0 0.0 -6.06 10.496227893867395 0.0 0.0 0.0 40.0" Properties=species:S:1:pos:R:3:tags:I:1:forces:R:3 energy=-1200.8525152692653 stress="0.002861146935476922 1.5467793020788088e-07 -1.3177997714216257e-07 1.5467793020788088e-07 0.002860824869871383 -2.424773553372952e-07 -1.3177997714216257e-07 -2.424773553372952e-07 0.00211082870024438" pbc="T T F"
C       -0.00005378      -0.00006462      10.00174743        2       0.00000883      -0.00007076       0.00182824
Ti      -0.00000664       1.74932663       8.71110934        0      -0.00002704       0.00000389       0.00224303
Ti       1.51508410       0.87468600      11.29148890        0       0.00000567      -0.00004065       0.00127670
O        0.00003551       1.74865367      12.23008024        3      -0.00003721       0.00002904       0.11196537
O        1.51498120       0.87469085       7.77138524        1      -0.00010114      -0.00003021       0.00245218
C       -1.51499990       2.62410588      10.00199932        2      -0.00003574      -0.00003115       0.00165142
Ti      -1.51500298       4.37341704       8.71095075        0      -0.00000808      -0.00002514       0.00209376
Ti       0.00001127       3.49881603      11.29149252        0       0.00004687       0.00000831       0.00130050
O       -1.51520648       4.37367277      12.23008024        3       0.00001855      -0.00005181       0.10962194
O       -0.00001824       3.49868303       7.77135900        1      -0.00002219      -0.00010163       0.00243431
C       -3.03000947       5.24811286      10.00181172        2       0.00002034      -0.00002096       0.00154213
Ti      -3.03001190       6.99749738       8.71091665        0      -0.00001096      -0.00002279       0.00202961
Ti      -1.51492699       6.12289524      11.29134548        0       0.00009556      -0.00002117       0.00116773
O       -3.02987018       6.99748906      12.23008024        3      -0.00007359      -0.00010699       0.10844745
O       -1.51500967       6.12277445       7.77131093        1      -0.00004438      -0.00004594       0.00227134
C       -4.54496323       7.87214551      10.00194959        2      -0.00001760      -0.00005970       0.00162474
Ti      -4.54504569       9.62155796       8.71106872        0      -0.00002321      -0.00001259       0.00216630
Ti      -3.02992431       8.74687963      11.29144911        0       0.00008363      -0.00009546       0.00119281
O       -4.54553131       9.62182182      12.23008024        3       0.00008383      -0.00015663       0.10801156
O       -3.03006716       8.74687587       7.77132013        1      -0.00008222      -0.00000718       0.00231798
C        3.03005082      -0.00004770      10.00191152        2      -0.00002876      -0.00006291       0.00160420
Ti       3.03001272       1.74938208       8.71098572        0      -0.00005076      -0.00001344       0.00203566
Ti       4.54504547       0.87461044      11.29144228        0       0.00004272       0.00001973       0.00116708
O        3.03008399       1.74927292      12.23008024        3       0.00007773      -0.00004361       0.09917067
O        4.54492296       0.87467534       7.77128164        1      -0.00008664      -0.00002246       0.00220325
C        1.51496488       2.62412438      10.00196088        2      -0.00001261      -0.00006114       0.00165247
Ti       1.51499227       4.37341004       8.71094020        0      -0.00003405      -0.00001692       0.00200145
Ti       3.02996342       3.49877325      11.29147150        0       0.00003499      -0.00002406       0.00120976
O        1.51532802       4.37390614      12.23008024        3      -0.00000611      -0.00000390       0.10892458
O        3.02993258       3.49870226       7.77130210        1      -0.00010460      -0.00004945       0.00226205
C       -0.00002054       5.24806097      10.00184126        2      -0.00001538       0.00001194       0.00152321
Ti       0.00000074       6.99749289       8.71087049        0      -0.00000982      -0.00001984       0.00183806
Ti       1.51495145       6.12290206      11.29130840        0       0.00002576      -0.00000461       0.00111257
O        0.00013147       6.99769289      12.23008024        3       0.00001756      -0.00000378       0.10249856
O        1.51498591       6.12276627       7.77129432        1      -0.00001247      -0.00007248       0.00220486
C       -1.51506480       7.87219116      10.00174679        2       0.00002468      -0.00003058       0.00156473
Ti      -1.51502413       9.62154570       8.71089280        0      -0.00001871      -0.00000628       0.00193341
Ti       0.00003554       8.74681375      11.29126545        0       0.00003718      -0.00004104       0.00107124
O       -1.51438023       9.62145994      12.23008024        3      -0.00005034      -0.00002222       0.10623772
O       -0.00001816       8.74685897       7.77127507        1      -0.00004783      -0.00000742       0.00214157
C        6.05998454       0.00002946      10.00171174        2      -0.00000634      -0.00005981       0.00141109
Ti       6.05999694       1.74937102       8.71085676        0      -0.00003665      -0.00001228       0.00179219
Ti       7.57486740       0.87457609      11.29141907        0      -0.00011005       0.00003303       0.00115745
O        6.05998198       1.74991148      12.23008024        3      -0.00001704      -0.00009460       0.09741512
O        7.57505835       0.87468086       7.77127066        1       0.00001925       0.00003041       0.00216769
C        4.54494921       2.62402766      10.00172958        2       0.00000878      -0.00001225       0.00139463
Ti       4.54500080       4.37342981       8.71087521        0      -0.00005748      -0.00003002       0.00177389
Ti       6.05995031       3.49871798      11.29142401        0      -0.00007005      -0.00002924       0.00109328
O        4.54539843       4.37323116      12.23008024        3      -0.00004843      -0.00002660       0.09672940
O        6.05998661       3.49873871       7.77125048        1       0.00000347       0.00000253       0.00208539
C        3.02999329       5.24809785      10.00176199        2      -0.00002844      -0.00000445       0.00139187
Ti       3.03000174       6.99749832       8.71088109        0      -0.00001557      -0.00000643       0.00187334
Ti       4.54483873       6.12276211      11.29143609        0      -0.00007392      -0.00016455       0.00115200
O        3.02967816       6.99753085      12.23008024        3      -0.00001514      -0.00000128       0.10457689
O        4.54500650       6.12284908       7.77127761        1      -0.00000334       0.00000596       0.00216654
C        1.51507209       7.87220926      10.00165835        2      -0.00002826       0.00001269       0.00143581
Ti       1.51501576       9.62153996       8.71086654        0       0.00000529       0.00000262       0.00186649
Ti       3.02995589       8.74686394      11.29140249        0      -0.00010822      -0.00008081       0.00117645
O        1.51465393       9.62132062      12.23008024        3       0.00001024       0.00003954       0.10263414
O        3.03005275       8.74688381       7.77129174        1       0.00007544       0.00001353       0.00221963
C        9.08994527      -0.00002191      10.00189752        2      -0.00001817      -0.00003280       0.00154804
Ti       9.08997088       1.74938609       8.71096775        0      -0.00000912      -0.00000334       0.00207217
Ti      10.60480100       0.87469628      11.29150402        0      -0.00003291      -0.00005088       0.00125896
O        9.08937205       1.74939937      12.23008024        3       0.00004837      -0.00008564       0.10370137
O       10.60500919       0.87470229       7.77136683        1       0.00003963      -0.00001833       0.00242412
C        7.57499766       2.62403313      10.00168032        2      -0.00004316      -0.00000087       0.00149146
Ti       7.57497874       4.37342321       8.71087780        0      -0.00001918      -0.00002619       0.00186531
Ti       9.08997315       3.49877309      11.29148418        0      -0.00007044      -0.00003265       0.00121984
O        7.57451419       4.37320101      12.23008024        3       0.00005186      -0.00002046       0.09782212
O        9.09006570       3.49871876       7.77130729        1       0.00000935      -0.00000209       0.00228813
C        6.05997660       5.24813349      10.00165301        2      -0.00003151      -0.00007193       0.00143501
Ti       6.05999580       6.99745302       8.71095434        0      -0.00002834      -0.00003526       0.00200206
Ti       7.57506336       6.12277652      11.29146908        0      -0.00002928      -0.00016300       0.00117068
O        6.05985092       6.99660661      12.23008024        3      -0.00001480      -0.00003855       0.10604007
O        7.57500497       6.12285907       7.77129206        1       0.00000675      -0.00000236       0.00223213
C        4.54495504       7.87213867      10.00190533        2      -0.00000412      -0.00003332       0.00156384
Ti       4.54503869       9.62156289       8.71102926        0      -0.00000055      -0.00000427       0.00214117
Ti       6.05995717       8.74662812      11.29149585        0      -0.00002756      -0.00012936       0.00122557
O        4.54553363       9.62177542      12.23008024        3      -0.00010351      -0.00012257       0.10394890
O        6.06000525       8.74686547       7.77134823        1      -0.00001737       0.00002469       0.00236690
C        0.04509112       0.06758295      17.24546486       10      -0.00009345       0.00026300      -0.03497109
C        1.25712937       0.76733399      17.24546486       10      -0.00394284      -0.00142691      -0.03424537
C       -1.16701899       2.16670611      17.24546486       10       0.00055083       0.00212358      -0.03514096
C        0.04500698       2.86650894      17.24546486       10       0.00035816      -0.00128224      -0.02810945
C       -2.37896843       4.26606364      17.24546486       10      -0.00106781       0.00063655      -0.03233468
C       -1.16696998       4.96579233      17.24546486       10       0.00075168      -0.00047647      -0.03143329
C       -3.59090332       6.36525310      17.24546486       10      -0.00162679       0.00187172      -0.03446207
C       -2.37893114       7.06500109      17.24546486       10       0.00036465      -0.00189391      -0.03294399
C       -4.80310604       8.46460947      17.24546486       10       0.00163145       0.00086884      -0.03668063
C       -3.59102137       9.16436382      17.24546486       10      -0.00050411      -0.00029236      -0.02971394
C        2.46906698       0.06765381      17.24546486       10       0.00107338      -0.00002045      -0.03894052
C        3.68115852       0.76733796      17.24546486       10      -0.00295373      -0.00027827      -0.03428648
C        1.25702977       2.16674746      17.24546486       10       0.00254334       0.00156616      -0.03672650
C        2.46904174       2.86658209      17.24546486       10      -0.00194611       0.00021929      -0.03496158
C        0.04501781       4.26599539      17.24546486       10      -0.00096025       0.00013721      -0.03724098
C        1.25700001       4.96574588      17.24546486       10      -0.00132318       0.00180833      -0.03265032
C       -1.16692594       6.36525845      17.24546486       10      -0.00104528       0.00126516      -0.03323519
C        0.04506040       7.06502239      17.24546486       10       0.00061673       0.00027621      -0.05932894
C       -2.37906360       8.46448626      17.24546486       10       0.00117600       0.00095129      -0.03863478
C       -1.16705231       9.16418285      17.24546486       10       0.00071478       0.00189172      -0.03361820
C        4.89309885       0.06752705      17.24546486       10      -0.00055833      -0.00116881      -0.03535192
C        6.10506999       0.76732990      17.24546486       10       0.00059855      -0.00040052      -0.03145087
C        3.68104456       2.16686959      17.24546486       10       0.00189868       0.00011388      -0.03389011
C        4.89309321       2.86664098      17.24546486       10       0.00138126       0.00070881      -0.03922931
C        2.46902103       4.26608383      17.24546486       10       0.00097648      -0.00239970      -0.03293574
C        3.68105350       4.96580195      17.24546486       10      -0.00093909       0.00247637      -0.03189862
C        1.25704378       6.36524691      17.24546486       10      -0.00130476      -0.00063526      -0.03457083
C        2.46900201       7.06496865      17.24546486       10      -0.00182971      -0.00001287      -0.03401773
C        0.04495736       8.46449082      17.24546486       10      -0.00055841       0.00047554      -0.03550747
C        1.25690038       9.16424809      17.24546486       10       0.00059477       0.00126229      -0.03385425
C        7.31702173       0.06757447      17.24546486       10      -0.00068662      -0.00180040      -0.03688580
C        8.52905299       0.76734176      17.24546486       10      -0.00114065      -0.00083328      -0.03347159
C        6.10505309       2.16683444      17.24546486       10      -0.00054144      -0.00022455      -0.03856546
C        7.31697626       2.86661378      17.24546486       10       0.00108834      -0.00114252      -0.03689641
C        4.89305065       4.26614200      17.24546486       10       0.00136865      -0.00176085      -0.03900824
C        6.10502593       4.96584364      17.24546486       10       0.00099863      -0.00003978      -0.03594981
C        3.68100281       6.36526924      17.24546486       10       0.00198000      -0.00012439      -0.03627682
C        4.89305718       7.06506202      17.24546486       10      -0.00248373      -0.00145893      -0.03450150
C        2.46884779       8.46447391      17.24546486       10       0.00298543       0.00041155      -0.04077370
C        3.68091083       9.16428697      17.24546486       10      -0.00099706       0.00013200      -0.02955544
C        9.74106019       0.06758877      17.24546486       10       0.00050657       0.00042589      -0.03885930
C       10.95309841       0.76726901      17.24546486       10      -0.00160141      -0.00075938      -0.03556736
C        8.52903257       2.16685738      17.24546486       10      -0.00032810       0.00201620      -0.03517009
C        9.74100972       2.86659322      17.24546486       10       0.00168640      -0.00175009      -0.03511447
C        7.31698224       4.26606854      17.24546486       10      -0.00065725       0.00058623      -0.04263268
C        8.52899295       4.96579901      17.24546486       10       0.00115244      -0.00050384      -0.03038514
C        6.10511141       6.36533582      17.24546486       10      -0.00032143       0.00136114      -0.03619910
C        7.31710381       7.06511070      17.24546486       10      -0.00054413      -0.00200083      -0.03535349
C        4.89294067       8.46454991      17.24546486       10       0.00396396       0.00153771      -0.03816198
C        6.10493133       9.16436826      17.24546486       10       0.00012252      -0.00013486      -0.03763314
