130
Lattice="12.12 0.0 0.0 -6.06 10.496227893867395 0.0 0.0 0.0 40.0" Properties=species:S:1:pos:R:3:tags:I:1:forces:R:3 energy=-1202.331057060743 stress="0.0029016953694966 -1.854892420836347e-07 -2.0569226349557985e-07 -1.854892420836347e-07 0.0029020495641848476 -4.288637398691642e-07 -2.0569226349557985e-07 -4.288637398691642e-07 0.0025490446489249844" pbc="T T F"
C        0.00000065      -0.00006006      10.00457807        2      -0.00000667       0.00010895      -0.00494378
Ti       0.00000523       1.74934063       8.71643084        0      -0.00013901      -0.00055834      -0.00107370
Ti       1.51429049       0.87444950      11.30297507        0      -0.00135746      -0.00144974       0.00697317
O        0.00001256       1.74926861      12.23008024        3       0.00027720       0.00111257       0.00812398
O        1.51528503       0.87477816       7.77903872        1       0.00000094      -0.00005841       0.00196790
C       -1.51493898       2.62403977      10.00547300        2      -0.00008477       0.00052008      -0.00433126
Ti      -1.51496731       4.37332647       8.71786841        0      -0.00007232      -0.00020890      -0.00143985
Ti       0.00001138       3.49792058      11.30436865        0      -0.00112062      -0.00213737       0.00583500
O       -1.51453277       4.37282886      12.23008024        3       0.00039725       0.00015146       0.02700339
O       -0.00004353       3.49918266       7.77942481        1      -0.00001730      -0.00012141       0.00134163
C       -3.02995337       5.24809195      10.00635740        2       0.00003786      -0.00027407      -0.00402546
Ti      -3.03004210       6.99752380       8.71798395        0      -0.00021057       0.00021299      -0.00179479
Ti      -1.51504517       6.12268651      11.30398048        0      -0.00120093       0.00001847       0.00585396
O       -3.03025023       6.99799390      12.23008024        3       0.00037937      -0.00065621       0.02411687
O       -1.51502263       6.12281300       7.77984040        1      -0.00007470      -0.00003386       0.00141534
C       -4.54496603       7.87218834      10.00570147        2       0.00006253      -0.00053503      -0.00473545
Ti      -4.54503367       9.62154930       8.71664869        0      -0.00028300      -0.00001272      -0.00144410
Ti      -3.03076386       8.74726130      11.30453674        0      -0.00145272       0.00039713       0.00647014
O       -4.54521493       9.62172322      12.23008024        3       0.00054816       0.00010420       0.01097612
O       -3.02966040       8.74655780       7.77951290        1      -0.00004961      -0.00002792       0.00180644
C        3.02992534      -0.00014242      10.00546066        2       0.00061779       0.00039866      -0.00439927
Ti       3.02994016       1.74932945       8.71755443        0      -0.00053360      -0.00059151      -0.00117502
Ti       4.54433123       0.87473274      11.30459993        0      -0.00028717      -0.00064705       0.00544473
O        3.02788391       1.74812844      12.23008024        3       0.00019892       0.00065815       0.02437018
O        4.54532472       0.87478787       7.77993418        1      -0.00010373      -0.00010416       0.00103644
C        1.51486429       2.62401315      10.00533094        2       0.00049538       0.00074415      -0.00384446
Ti       1.51494761       4.37329571       8.71774291        0      -0.00041047      -0.00029436      -0.00103278
Ti       3.02961778       3.49820303      11.30472459        0      -0.00020434      -0.00130262       0.00455373
O        1.51436517       4.37271586      12.23008024        3       0.00052131       0.00015312       0.02682041
O        3.03029660       3.49893773       7.77993305        1      -0.00011641      -0.00005989       0.00078760
C       -0.00004552       5.24816131      10.00597862        2       0.00045363       0.00007963      -0.00333220
Ti      -0.00001235       6.99744632       8.71750402        0      -0.00026178       0.00004295      -0.00094436
Ti       1.51509916       6.12261193      11.30375396        0      -0.00019944       0.00047190       0.00497249
O       -0.00004782       6.99744325      12.23008024        3       0.00052124      -0.00038944       0.01775690
O        1.51504942       6.12284874       7.77983640        1      -0.00007972      -0.00006328       0.00107249
C       -1.51500685       7.87212192      10.00608987        2       0.00043687      -0.00027916      -0.00399267
Ti      -1.51513000       9.62153044       8.71781068        0      -0.00040779      -0.00015969      -0.00153844
Ti       0.00000013       8.74695582      11.30362277        0      -0.00038560       0.00077646       0.00569990
O       -1.51572318       9.62134153      12.23008024        3       0.00038083       0.00010570       0.02519996
O        0.00004457       8.74685513       7.77983726        1      -0.00008437      -0.00010849       0.00135990
C        6.05996496      -0.00010089      10.00634987        2      -0.00006416       0.00017190      -0.00374129
Ti       6.05997858       1.74918457       8.71812201        0       0.00012025      -0.00035752      -0.00100136
Ti       7.57538138       0.87477051      11.30484260        0       0.00130731       0.00005852       0.00536071
O        6.05983388       1.74863344      12.23008024        3      -0.00036341       0.00017024       0.01331188
O        7.57471898       0.87479271       7.78004794        1      -0.00002714      -0.00009041       0.00100183
C        4.54484305       2.62391032      10.00648261        2       0.00006971       0.00037996      -0.00311086
Ti       4.54484660       4.37344976       8.71811204        0       0.00002071       0.00006102      -0.00082454
Ti       6.05989146       3.49866257      11.30337584        0       0.00111234      -0.00028364       0.00473200
O        4.54413942       4.37349018      12.23008024        3      -0.00045558      -0.00030615       0.01570521
O        6.05999456       3.49872348       7.78038514        1      -0.00007259      -0.00001669       0.00071910
C        3.02988680       5.24807151      10.00631562        2      -0.00007039      -0.00029132      -0.00290067
Ti       3.03003923       6.99752411       8.71794612        0       0.00015770       0.00041312      -0.00122030
Ti       4.54517685       6.12286086      11.30488920        0       0.00127903       0.00147677       0.00490300
O        3.03011313       6.99797132      12.23008024        3      -0.00024874      -0.00072492       0.02279447
O        4.54499826       6.12249503       7.78013123        1      -0.00002271      -0.00003855       0.00088813
C        1.51504785       7.87218000      10.00612416        2      -0.00014137      -0.00059327      -0.00346180
Ti       1.51510189       9.62153578       8.71789485        0       0.00023625       0.00003004      -0.00138004
Ti       3.03094792       8.74732353      11.30444273        0       0.00125645       0.00155457       0.00610444
O        1.51563190       9.62136985      12.23008024        3      -0.00040065      -0.00047428       0.02376910
O        3.02966355       8.74660657       7.77961796        1       0.00006927      -0.00002380       0.00135070
C        9.09007960      -0.00009053      10.00567798        2      -0.00066080      -0.00012978      -0.00442525
Ti       9.09004686       1.74932782       8.71777916        0       0.00045925      -0.00027544      -0.00126554
Ti      10.60576460       0.87462901      11.30319933        0       0.00040758      -0.00080103       0.00697481
O        9.09170093       1.74832789      12.23008024        3      -0.00042556       0.00013948       0.02197662
O       10.60461540       0.87477616       7.77914056        1       0.00003883      -0.00003599       0.00189110
C        7.57504694       2.62394004      10.00654873        2      -0.00048901       0.00014233      -0.00363921
Ti       7.57509651       4.37344161       8.71807048        0       0.00027716       0.00012138      -0.00105710
Ti       9.09015665       3.49839587      11.30475022        0       0.00007864      -0.00111610       0.00575738
O        7.57568761       4.37358633      12.23008024        3      -0.00020462      -0.00007801       0.01498437
O        9.08968228       3.49889588       7.78001645        1       0.00001776      -0.00002704       0.00112438
C        6.05996556       5.24810128      10.00656824        2      -0.00044696      -0.00059386      -0.00351627
Ti       6.05999163       6.99752190       8.71792567        0       0.00019444       0.00054694      -0.00157310
Ti       7.57475611       6.12284966      11.30467589        0      -0.00013603       0.00092032       0.00606205
O        6.05997380       6.99895042      12.23008024        3      -0.00063318      -0.00073419       0.02097034
O        7.57497136       6.12246428       7.78009608        1       0.00001565      -0.00001609       0.00126857
C        4.54499769       7.87223530      10.00579378        2      -0.00055409      -0.00082320      -0.00428153
Ti       4.54506858       9.62157634       8.71679619        0       0.00038195       0.00014412      -0.00131613
Ti       6.06018107       8.74737248      11.30339586        0       0.00016712       0.00128318       0.00727218
O        4.54568401       9.62198684      12.23008024        3      -0.00061191      -0.00027793       0.01450478
O        6.05994181       8.74639564       7.77923111        1       0.00006467      -0.00005593       0.00200286
C        0.04508494       0.06759582      16.26084947       10      -0.00441060      -0.00284992      -0.04310791
C        1.25715864       0.76739360      16.26084947       10       0.00285426       0.00120483      -0.00030063
C       -1.16709312       2.16719807      16.26084947       10       0.00056382      -0.00611822      -0.02456389
C        0.04493698       2.86690813      16.26084947       10       0.00056931       0.00156855      -0.00653786
C       -2.37892273       4.26632407      16.26084947       10       0.00014498      -0.00334962      -0.00021319
C       -1.16692272       4.96603369      16.26084947       10       0.00133457       0.00147550      -0.00752808
C       -3.59062324       6.36529664      16.26084947       10      -0.00070630      -0.00421441      -0.00052180
C       -2.37858522       7.06491580      16.26084947       10      -0.00133874       0.00330689      -0.00786858
C       -4.80276028       8.46437741      16.26084947       10      -0.00226851      -0.00176292      -0.01997305
C       -3.59074599       9.16410874      16.26084947       10       0.00503984      -0.00120092      -0.00740984
C        2.46935940       0.06747893      16.26084947       10      -0.00227968       0.00232591      -0.02301971
C        3.68129950       0.76742297      16.26084947       10      -0.00298731      -0.00342696      -0.00374737
C        1.25697355       2.16712182      16.26084947       10       0.00027928      -0.00380419      -0.02730080
C        2.46902051       2.86670939      16.26084947       10      -0.00126298       0.00143321      -0.00424884
C        0.04503141       4.26646029      16.26084947       10      -0.00142337      -0.00166951       0.00145249
C        1.25706180       4.96597178      16.26084947       10      -0.00052236       0.00172267      -0.01000121
C       -1.16647221       6.36547229      16.26084947       10      -0.00656511      -0.00229424       0.00761676
C        0.04527180       7.06511396      16.26084947       10      -0.00203804       0.00095691      -0.01650517
C       -2.37864032       8.46430434      16.26084947       10      -0.00143809       0.00144779       0.00384079
C       -1.16685969       9.16433672      16.26084947       10       0.00067119      -0.00661858      -0.01285259
C        4.89322414       0.06749813      16.26084947       10      -0.00123067       0.00685525       0.00299924
C        6.10507498       0.76726014      16.26084947       10      -0.00294597      -0.00389434      -0.00437720
C        3.68103566       2.16696557      16.26084947       10       0.00272798      -0.00042337      -0.00488125
C        4.89287185       2.86674349      16.26084947       10       0.00102781      -0.00182915      -0.00971476
C        2.46897155       4.26621702      16.26084947       10       0.00257810       0.00079157       0.00217418
C        3.68081245       4.96601999      16.26084947       10      -0.00260008      -0.00053215      -0.00517282
C        1.25705305       6.36537588      16.26084947       10      -0.00102143       0.00200695       0.01197505
C        2.46898299       7.06501635      16.26084947       10      -0.00253225       0.00066767      -0.01136806
C        0.04498755       8.46445976      16.26084947       10       0.00306121       0.00402773       0.01447289
C        1.25679637       9.16439362      16.26084947       10       0.00146457      -0.00671343      -0.01370090
C        7.31693681       0.06752088      16.26084947       10      -0.00063573       0.00671545       0.00260116
C        8.52885224       0.76740444      16.26084947       10       0.00174248      -0.00127460      -0.00288649
C        6.10481966       2.16673714      16.26084947       10       0.00214417      -0.00084184      -0.01006697
C        7.31677863       2.86660820      16.26084947       10       0.00667627       0.00252523      -0.01028112
C        4.89279503       4.26631767      16.26084947       10       0.00060489      -0.00153576      -0.01037244
C        6.10496914       4.96591764      16.26084947       10       0.00150997       0.00204139      -0.01024060
C        3.68090613       6.36535565      16.26084947       10       0.00124296      -0.00137988       0.00121231
C        4.89297744       7.06496203      16.26084947       10      -0.00016696       0.00413171      -0.00506411
C        2.46857661       8.46437386      16.26084947       10       0.00285262       0.00350114       0.00525182
C        3.68063017       9.16419545      16.26084947       10       0.00244237      -0.00222831      -0.00903604
C        9.74086322       0.06753959      16.26084947       10      -0.00514305       0.00137601      -0.01720804
C       10.95295189       0.76744015      16.26084947       10       0.00236792       0.00178310      -0.00043260
C        8.52876997       2.16698409      16.26084947       10       0.00135814      -0.00300758      -0.00503864
C        9.74085727       2.86673479      16.26084947       10       0.00093000       0.00437405      -0.00520234
C        7.31710655       4.26621840      16.26084947       10      -0.00110293      -0.00127760      -0.00970383
C        8.52920442       4.96588883      16.26084947       10       0.00006184       0.00367282      -0.00586484
C        6.10509139       6.36532215      16.26084947       10      -0.00041360      -0.00149860      -0.00647950
C        7.31726210       7.06486536      16.26084947       10      -0.00060825       0.00643271      -0.00596432
C        4.89279249       8.46444976      16.26084947       10      -0.00285226      -0.00110960      -0.01699620
C        6.10497133       9.16417790      16.26084947       10       0.00435535       0.00307901      -0.00146921
