130
Lattice="12.12 0.0 0.0 -6.06 10.496227893867395 0.0 0.0 0.0 40.0" Properties=species:S:1:pos:R:3:tags:I:1:forces:R:3 energy=-1200.3189823361633 stress="0.00282823329738125 2.041635309456964e-07 -1.809941303821425e-07 2.041635309456964e-07 0.0028278686920193124 -9.367756527431585e-08 -1.809941303821425e-07 -9.367756527431585e-08 0.00285029981879155" pbc="T T F"
C       -0.00007468      -0.00003491       9.98164268        2      -0.00032920      -0.00015814      -0.00191294
Ti      -0.00005564       1.74913681       8.69639311        0       0.00011167       0.00046523      -0.00297305
Ti       1.51634663       0.87563804      11.30560646        0       0.00018345       0.00006217       0.00214722
O        0.00005943       1.74801361      12.23008024        3      -0.00008357       0.00017195      -0.08199811
O        1.51527200       0.87478042       7.77402825        1      -0.00044159      -0.00019996       0.00210231
C       -1.51529035       2.62444970       9.98198947        2      -0.00008609      -0.00033871      -0.00333374
Ti      -1.51458390       4.37366387       8.69422345        0      -0.00038378      -0.00000560      -0.00139071
Ti      -0.00047067       3.49802841      11.30040327        0      -0.00049088      -0.00098052       0.00137928
O       -1.51444149       4.37115076      12.23008024        3       0.00026317      -0.00064715      -0.07074475
O        0.00005220       3.49870185       7.77293926        1       0.00000114      -0.00028402       0.00262119
C       -3.03097990       5.24761790       9.98226200        2       0.00014775       0.00019284      -0.00416186
Ti      -3.02944335       6.99783506       8.69431773        0      -0.00035225      -0.00072078      -0.00174882
Ti      -1.51701629       6.12142727      11.30358916        0       0.00007355       0.00036172       0.00092248
O       -3.03135483       6.99866321      12.23008024        3      -0.00016031       0.00038729      -0.06691436
O       -1.51478751       6.12289596       7.77358917        1       0.00000109       0.00005172       0.00244944
C       -4.54486041       7.87159416       9.98212949        2      -0.00029626       0.00030431      -0.00333303
Ti      -4.54517860       9.62159521       8.69622935        0       0.00018664      -0.00004016      -0.00319966
Ti      -3.03131149       8.74656795      11.30024582        0      -0.00058588       0.00038031       0.00257590
O       -4.54649402       9.62262334      12.23008024        3       0.00035040      -0.00016036      -0.08095481
O       -3.03000687       8.74700210       7.77301940        1      -0.00015759       0.00022408       0.00240696
C        3.03038023      -0.00007798       9.98251744        2      -0.00044935      -0.00030198      -0.00305087
Ti       3.03053568       1.74964045       8.69362313        0       0.00022586       0.00048625      -0.00123573
Ti       4.54509185       0.87550577      11.29719577        0       0.00035527      -0.00026802       0.00131267
O        3.02817525       1.74859773      12.23008024        3      -0.00029829      -0.00006434      -0.08079620
O        4.54497379       0.87409244       7.77229240        1      -0.00033453       0.00013879       0.00273680
C        1.51510300       2.62447909       9.98227548        2      -0.00034948      -0.00044801      -0.00352400
Ti       1.51453780       4.37360599       8.69462956        0       0.00063658      -0.00006159      -0.00072959
Ti       3.03085098       3.49888533      11.29729252        0      -0.00030466       0.00019604      -0.00002921
O        1.51430272       4.37069619      12.23008024        3       0.00032250      -0.00017052      -0.07266278
O        3.02953054       3.49897629       7.77217279        1      -0.00016888      -0.00049533       0.00283366
C       -0.00009389       5.24856399       9.98285859        2      -0.00026585      -0.00013276      -0.00347595
Ti       0.00003199       6.99762361       8.69798053        0       0.00015277      -0.00032923      -0.00184646
Ti       1.51673726       6.12125068      11.30495452        0      -0.00054304       0.00055829      -0.00062083
O       -0.00056057       6.99689395      12.23008024        3       0.00046514      -0.00065216      -0.05647084
O        1.51484082       6.12279302       7.77381754        1      -0.00019795       0.00007828       0.00295135
C       -1.51477413       7.87180205       9.98285495        2      -0.00024981       0.00018127      -0.00307633
Ti      -1.51508228       9.62102955       8.69520567        0       0.00032215       0.00061645      -0.00185663
Ti      -0.00031827       8.74895534      11.30617522        0      -0.00007260      -0.00010453       0.00085802
O       -1.51743877       9.62241595      12.23008024        3      -0.00046768       0.00006290      -0.07060919
O       -0.00006621       8.74683406       7.77417976        1      -0.00005807      -0.00004662       0.00262012
C        6.06006148       0.00072450       9.98287760        2       0.00016145      -0.00031250      -0.00386780
Ti       6.06013976       1.74898765       8.69340040        0      -0.00018983       0.00084368      -0.00077910
Ti       7.57531574       0.87539440      11.29696127        0       0.00012940      -0.00033257       0.00151000
O        6.05992774       1.74895663      12.23008024        3      -0.00033219      -0.00027988      -0.06294817
O        7.57495132       0.87391995       7.77207588        1       0.00033871       0.00015758       0.00272539
C        4.54552264       2.62452440       9.98145209        2       0.00004635      -0.00051506      -0.00424043
Ti       4.54492662       4.37377132       8.69315330        0       0.00032344      -0.00029418      -0.00018293
Ti       6.05982646       3.49845089      11.30340033        0       0.00037724      -0.00004550      -0.00197487
O        4.54449189       4.37351814      12.23008024        3      -0.00056867       0.00023594      -0.06378423
O        6.05983885       3.49852591       7.77245517        1       0.00002557      -0.00005019       0.00218871
C        3.03076070       5.24783711       9.98267661        2       0.00019459       0.00006201      -0.00445759
Ti       3.02931865       6.99789306       8.69473584        0       0.00025792      -0.00083895      -0.00108387
Ti       4.54554253       6.12287826      11.29659938        0      -0.00057122       0.00013620       0.00061403
O        3.03105959       6.99828090      12.23008024        3       0.00053827      -0.00009924      -0.06340454
O        4.54425731       6.12320856       7.77173985        1       0.00034994       0.00018684       0.00274504
C        1.51475417       7.87188489       9.98286443        2       0.00021716       0.00055740      -0.00311458
Ti       1.51500935       9.62087579       8.69523875        0      -0.00031739       0.00036310      -0.00175083
Ti       3.03116264       8.74704254      11.30023968        0       0.00084229       0.00081375       0.00242556
O        1.51654249       9.62225504      12.23008024        3       0.00034513       0.00037258      -0.06510342
O        3.03003649       8.74695318       7.77301452        1       0.00008393       0.00014382       0.00261736
C        9.08950448      -0.00003791       9.98255994        2       0.00010971      -0.00002246      -0.00315330
Ti       9.08938088       1.74969036       8.69312528        0      -0.00029771       0.00021477      -0.00169872
Ti      10.60357047       0.87572624      11.30426409        0      -0.00031767      -0.00005368       0.00298435
O        9.09203787       1.74877163      12.23008024        3       0.00004499      -0.00024819      -0.07911654
O       10.60475374       0.87469924       7.77370165        1       0.00048389      -0.00028535       0.00219163
C        7.57462769       2.62446170       9.98088911        2       0.00053671      -0.00025260      -0.00420511
Ti       7.57506565       4.37361543       8.69310675        0      -0.00059957      -0.00031907      -0.00076290
Ti       9.08941637       3.49891462      11.29674341        0      -0.00006438      -0.00019046       0.00139621
O        7.57562527       4.37366242      12.23008024        3       0.00015520       0.00018525      -0.06650643
O        9.09050227       3.49898041       7.77178194        1       0.00007903      -0.00049364       0.00264095
C        6.06004336       5.24784602       9.98040451        2       0.00036231       0.00028792      -0.00430899
Ti       6.06000748       6.99670334       8.69270756        0      -0.00021988      -0.00043611      -0.00137786
Ti       7.57473344       6.12261140      11.29641765        0       0.00023426      -0.00005820       0.00159111
O        6.06025039       6.99957952      12.23008024        3      -0.00017373       0.00058495      -0.07612029
O        7.57559942       6.12320629       7.77158561        1      -0.00036363       0.00017164       0.00259842
C        4.54480043       7.87159068       9.98244007        2      -0.00008627       0.00050174      -0.00343620
Ti       4.54513131       9.62161834       8.69597113        0      -0.00034095      -0.00018676      -0.00319364
Ti       6.06001113       8.74511276      11.30367088        0      -0.00005129      -0.00044656       0.00310136
O        4.54670570       9.62268244      12.23008024        3      -0.00017036      -0.00007165      -0.08117351
O        6.05995478       8.74670995       7.77361212        1      -0.00007494       0.00060512       0.00201597
C        0.04508232       0.06741226      15.76854178       10      -0.00701656      -0.00312691      -0.01214235
C        1.25730967       0.76744986      15.76854178       10      -0.00034499       0.00083413      -0.03179896
C       -1.16787138       2.16745002      15.76854178       10       0.00080425       0.00078697       0.01377989
C        0.04481189       2.86620895      15.76854178       10       0.00148994      -0.00125384      -0.02622122
C       -2.37972229       4.26582441      15.76854178       10      -0.00077160       0.00069369       0.02649784
C       -1.16763264       4.96520103      15.76854178       10       0.00086483       0.00011164       0.02728278
C       -3.59144874       6.36469494      15.76854178       10      -0.00213333       0.00119761       0.02980074
C       -2.37960239       7.06461951      15.76854178       10      -0.00167055       0.00086988       0.03128723
C       -4.80273932       8.46354226      15.76854178       10      -0.00476009       0.00015410       0.01658509
C       -3.59142035       9.16423462      15.76854178       10       0.00416286       0.00297130      -0.02027962
C        2.47012070       0.06773330      15.76854178       10      -0.00373287      -0.00188950       0.01410613
C        3.68166240       0.76812348      15.76854178       10      -0.00450943      -0.00040313       0.01522535
C        1.25761632       2.16752105      15.76854178       10       0.00050740      -0.00186565       0.01245874
C        2.46992760       2.86662569      15.76854178       10       0.00083013      -0.00068577       0.01579626
C        0.04497476       4.26636918      15.76854178       10      -0.00030092      -0.00132162       0.01539186
C        1.25772185       4.96519526      15.76854178       10      -0.00079132      -0.00073582       0.02420389
C       -1.16730388       6.36496679      15.76854178       10      -0.00285732       0.00035845       0.02317842
C        0.04516535       7.06479949      15.76854178       10      -0.00299860       0.00026730       0.03498531
C       -2.37877953       8.46422630      15.76854178       10      -0.00008578      -0.00016882       0.01457148
C       -1.16713626       9.16499718      15.76854178       10      -0.00059719       0.00085212       0.02605516
C        4.89348852       0.06828844      15.76854178       10      -0.00294418       0.00071057       0.02362769
C        6.10508795       0.76803864      15.76854178       10      -0.00055939      -0.00041030       0.05624710
C        3.68175807       2.16733152      15.76854178       10       0.00069396      -0.00071424       0.02865306
C        4.89348580       2.86699195      15.76854178       10       0.00245574      -0.00057836       0.06930728
C        2.46981210       4.26590018      15.76854178       10       0.00002361      -0.00017934       0.02404794
C        3.68152977       4.96558635      15.76854178       10       0.00049578       0.00034055       0.05739924
C        1.25774180       6.36507952      15.76854178       10      -0.00244620       0.00058111       0.02509084
C        2.47003880       7.06464663      15.76854178       10      -0.00069147       0.00072539       0.03256190
C        0.04509312       8.46485143      15.76854178       10       0.00078234       0.00054381       0.02665454
C        1.25703439       9.16522078      15.76854178       10       0.00318803      -0.00041482       0.03069370
C        7.31678415       0.06858184      15.76854178       10       0.00082060      -0.00060905       0.02583681
C        8.52866610       0.76815454      15.76854178       10       0.00021208       0.00017397       0.02463365
C        6.10485539       2.16769439      15.76854178       10       0.00294168      -0.00033293       0.04003720
C        7.31638428       2.86691578      15.76854178       10       0.00272611      -0.00043365       0.06887704
C        4.89358226       4.26576483      15.76854178       10       0.00128995       0.00084509       0.03992408
C        6.10504058       4.96535621      15.76854178       10       0.00066695       0.00158972       0.06702431
C        3.68191156       6.36462826      15.76854178       10      -0.00071934       0.00082045       0.02960381
C        4.89353743       7.06426174      15.76854178       10      -0.00050233       0.00200080       0.03286948
C        2.46865726       8.46435693      15.76854178       10       0.00456054       0.00038207       0.01379588
C        3.68119054       9.16437399      15.76854178       10       0.00375317       0.00169265      -0.01204782
C        9.74021781       0.06782361      15.76854178       10      -0.00411481      -0.00312504       0.01744747
C       10.95271699       0.76761310      15.76854178       10       0.00472129      -0.00023574      -0.02852446
C        8.52823184       2.16742104      15.76854178       10       0.00154222      -0.00093026       0.02962427
C        9.73994769       2.86680884      15.76854178       10       0.00192596      -0.00109903       0.02742525
C        7.31659409       4.26586351      15.76854178       10      -0.00069351      -0.00012656       0.03942558
C        8.52868253       4.96566138      15.76854178       10       0.00088129      -0.00063582       0.06027018
C        6.10529109       6.36454063      15.76854178       10      -0.00151551       0.00165279       0.03169275
C        7.31693777       7.06420510      15.76854178       10      -0.00090530      -0.00065391       0.03523909
C        4.89272460       8.46363282      15.76854178       10       0.00041984      -0.00081473       0.01841641
C        6.10493305       9.16369823      15.76854178       10       0.00673269       0.00268782      -0.02548544
