131
Lattice="12.12 0.0 0.0 -6.06 10.496227893867395 0.0 0.0 0.0 40.0" Properties=species:S:1:pos:R:3:tags:I:1:forces:R:3 stress="0.00291104327718181 3.192605274220191e-08 1.565352389757637e-07 3.192605274220191e-08 0.0029105317086977034 -7.568034504455821e-07 1.565352389757637e-07 -7.568034504455821e-07 0.0026495125506565418" energy=-1205.9918911486097 pbc="T T F"
C        0.24898782      -0.10648829      10.00763372        2       0.00192598      -0.00262948      -0.00225792
Ti       0.25272506       1.63970885       8.71746881        0      -0.00107052      -0.00099630      -0.00091976
Ti       1.76717312       0.77073723      11.31057431        0      -0.00401912       0.00004585       0.00181968
O        0.24384828       1.64645401      12.23008024        3      -0.00164378      -0.00038720      -0.03409184
O        1.77302610       0.75857675       7.79181982        1      -0.00052731      -0.00225860       0.00252218
C       -1.26244436       2.51534450      10.00197665        2      -0.00273329      -0.00311623      -0.00338091
Ti      -1.26297475       4.26524972       8.71701814        0      -0.00198223      -0.00200694       0.00191432
Ti       0.25323719       3.38981717      11.30394557        0      -0.00133915       0.00161402       0.00350264
O       -1.26150385       4.25356710      12.23008024        3      -0.00025506       0.00097547      -0.03477855
O        0.25220666       3.38951260       7.77797316        1      -0.00135887       0.00041946       0.00578548
C       -2.77712947       5.13486314      10.00758952        2      -0.00111024       0.00355564      -0.00247656
Ti      -2.77717986       6.89168955       8.74693208        0      -0.00054839       0.00278842      -0.00185587
Ti      -1.25831521       6.01056303      11.31039809        0       0.00067091      -0.00115335       0.00221257
O       -2.77716122       6.83568356      12.23008024        3      -0.00035374       0.00207297      -0.21766308
O       -1.26613254       6.02225471       7.79192264        1       0.00021581       0.00129711      -0.00106504
C       -4.28646611       7.76672672      10.04151978        2       0.00094159      -0.00016924      -0.00110527
Ti      -4.28975416       9.51138558       8.74661830        0       0.00205503      -0.00120541      -0.00025156
Ti      -2.77777692       8.63750359      11.42173472        0       0.00193251       0.00109677       0.00140925
O       -4.33761846       9.53882569      12.23008024        3      -0.00037391      -0.00024784      -0.21577352
O       -2.77754846       8.63793252       7.80724364        1      -0.00047314      -0.00006739      -0.00227811
C        3.28236925      -0.11592519      10.04158929        2       0.00134299       0.00038080      -0.00287185
Ti       3.28262951       1.64225761       8.72372864        0      -0.00019294      -0.00035548      -0.00101002
Ti       4.79813461       0.76985771      11.31071037        0       0.00242112       0.00808466       0.00109191
O        3.28274613       1.65165321      12.23008024        3      -0.00014567      -0.00290841      -0.00900634
O        4.79188942       0.75798291       7.79222212        1       0.00159376       0.00013644      -0.00029904
C        1.76723340       2.51847301      10.00497395        2      -0.00289658      -0.00293231      -0.00381098
Ti       1.76719948       4.26433061       8.71542820        0      -0.00080300      -0.00185753       0.00390182
Ti       3.28289951       3.39348629      11.30425836        0      -0.00127577      -0.00056119       0.00024800
O        1.76750616       4.26412767      12.23008024        3      -0.00144226       0.00209565      -0.05739789
O        3.28310116       3.38373805       7.78054945        1      -0.00092616       0.00115139       0.00146598
C        0.25524806       5.13716587      10.00467622        2      -0.00183444      -0.00133960      -0.00220245
Ti       0.25434280       6.88776125       8.72338860        0      -0.00038635      -0.00007334      -0.00018026
Ti       1.77069343       6.01205254      11.30407962        0       0.00337560      -0.00126030       0.00140693
O        0.26240503       6.88280502      12.23008024        3      -0.00179520       0.00104954      -0.01122771
O        1.76321951       6.01702301       7.78023433        1      -0.00494612       0.00146300       0.00315705
C       -1.26854352       7.76643666      10.04125505        2       0.00313191       0.00048208       0.00020213
Ti      -1.26552588       9.51066823       8.74719017        0       0.00037969       0.00169688      -0.00263236
Ti       0.25711610       8.63603705      11.31055829        0       0.00336057      -0.00163350       0.00126171
O       -1.21732862       9.53831527      12.23008024        3       0.00076883       0.00063398      -0.21433089
O        0.24311511       8.63722183       7.79202408        1       0.00128130      -0.00126139      -0.00050272
C        6.31600129      -0.10718007      10.00781928        2      -0.00114936       0.00067998      -0.00329257
Ti       6.31178770       1.63935634       8.71754766        0       0.00346567      -0.00009623      -0.00042524
Ti       7.82878690       0.76643622      11.30698361        0       0.00366159      -0.00026819      -0.00015967
O        6.32149440       1.64591947      12.23008024        3      -0.00039718       0.00226596      -0.03190482
O        7.82576997       0.76528936       7.77762388        1      -0.00075480      -0.00363173       0.00812659
C        4.79849660       2.51798470      10.00509153        2      -0.00074402       0.00114648      -0.00362857
Ti       4.79888833       4.26442040       8.71575495        0      -0.00098112      -0.00135704       0.00253596
Ti       6.31254533       3.38962415      11.30425563        0       0.00012123       0.00009224       0.00131683
O        4.79822332       4.26424416      12.23008024        3      -0.00008456      -0.00037021      -0.05389600
O        6.31346929       3.38921073       7.77847451        1      -0.00015672       0.00183648       0.00300026
C        3.28304610       5.13926875      10.00182232        2      -0.00170855       0.00077918      -0.00254846
Ti       3.28307772       6.89008876       8.71582758        0      -0.00056974      -0.00093603       0.00155927
Ti       4.79450008       6.01171248      11.30445529        0       0.00013146       0.00270725      -0.00054666
O        3.28274852       6.88905634      12.23008024        3      -0.00096227      -0.00027886      -0.05586399
O        4.80346304       6.01751127       7.78057730        1      -0.00229123      -0.00352818       0.00273894
C        1.77055499       7.76231244      10.00480052        2       0.00157433       0.00188758      -0.00216850
Ti       1.76643850       9.51301224       8.71720747        0       0.00046491       0.00250553       0.00123900
Ti       3.28288334       8.63752976      11.30439671        0      -0.00275823       0.00139592       0.00079969
O        1.77712561       9.51730166      12.23008024        3       0.00052779      -0.00039492      -0.03365744
O        3.28264839       8.63947505       7.77817511        1       0.00034884      -0.00246894       0.00645423
C        9.34240695      -0.10862678      10.00212494        2       0.00091040       0.00279125      -0.00388693
Ti       9.34184186       1.64081808       8.71486187        0       0.00480494      -0.00184079       0.00038166
Ti      10.85619070       0.76669794      11.30698382        0      -0.00024140       0.00047731      -0.00016645
O        9.34243253       1.64052585      12.23008024        3       0.00141705      -0.00100493      -0.03992397
O       10.85858192       0.76558502       7.77813215        1       0.00449680      -0.00377360       0.00392398
C        7.82732790       2.51525063      10.00217467        2       0.00641430      -0.00416691      -0.00424955
Ti       7.82846366       4.26552948       8.71756155        0       0.00011928      -0.00250640      -0.00117413
Ti       9.34269024       3.38829119      11.30708828        0       0.00179603      -0.00242124      -0.00084163
O        7.82716196       4.25361881      12.23008024        3      -0.00100300       0.00109164      -0.03236007
O        9.34243732       3.39147926       7.77762301        1       0.00125866       0.00344415       0.00697584
C        6.31059404       5.13701845      10.00506523        2      -0.00026139       0.00064575      -0.00321200
Ti       6.31155816       6.88820193       8.72400546        0      -0.00067218      -0.00032326      -0.00321296
Ti       7.82403528       6.01084536      11.31051443        0      -0.00427234      -0.00514458       0.00290990
O        6.30298957       6.88292581      12.23008024        3       0.00295892       0.00076840      -0.00912557
O        7.83168337       6.02244411       7.79207069        1      -0.00109897       0.00030249       0.00053015
C        4.79473221       7.76247738      10.00515977        2       0.00028385       0.00233768      -0.00405116
Ti       4.79866785       9.51360727       8.71775582        0      -0.00095984      -0.00024977      -0.00243370
Ti       6.30818404       8.63583944      11.31067262        0      -0.00405809       0.00322911       0.00191680
O        4.78809671       9.51738618      12.23008024        3      -0.00041114       0.00154104      -0.03302361
O        6.32183817       8.63745425       7.79195850        1       0.00009349      -0.00071150       0.00238393
C       -0.35446435       0.24022639      16.10021542       10       0.00628524       0.00388603       0.03817778
C        0.85626131       0.93969248      16.08492337       10      -0.00435826       0.00155748       0.05611889
C       -1.56470264       2.33887031      16.10553612       10      -0.00065279       0.00236992      -0.01644134
C       -0.35269478       3.03857500      16.08782569       10      -0.00141601      -0.00099973       0.05662536
C       -2.77707450       4.43605028      16.10021542       10       0.00044535       0.00251037       0.03841132
C       -1.56593948       5.13471908      16.08492337       10       0.00214100       0.00217865       0.05591446
C       -3.98331018       6.53914189      16.03710467       10      -0.00929072       0.00218424       0.03957117
C       -2.77676196       7.21999472      15.99528245       10      -0.00155808      -0.00189701      -0.38500916
C       -5.19641634       8.63990265      16.03710467       10       0.00033169       0.00370308       0.03962791
C       -4.00348756       9.34446008      15.99528245       10      -0.00378370       0.00401144      -0.38502073
C        2.07018468       0.23360263      16.03710467       10       0.00124621       0.00359014       0.03976531
C        3.28305994       0.93767651      16.00502599       10       0.00290114       0.00781604       0.20031304
C        0.85916307       2.33798314      16.07388040       10      -0.00011089       0.00108874       0.00736482
C        2.07090178       3.03740719      16.05196599       10      -0.00254332       0.00161170       0.00649956
C       -0.35343311       4.43836394      16.07388040       10      -0.00028478      -0.00244432       0.00746752
C        0.85806929       5.13822617      16.05196599       10      -0.00399639      -0.00240190       0.00652679
C       -1.57026822       6.53910666      16.03710467       10       0.00329771       0.00235798       0.03988092
C       -0.35426961       7.23785702      16.00502599       10       0.00233744      -0.00496256       0.20035218
C       -2.77691516       8.63641140      15.54247679       10       0.00116940      -0.00100543       0.61491774
C       -1.55038276       9.34482768      15.99528245       10       0.00380235       0.00157363      -0.38800385
C        4.49615357       0.23402606      16.03710467       10      -0.00247705      -0.00416960       0.03932989
C        5.71018334       0.94005714      16.08492337       10      -0.00161519       0.00091263       0.05582130
C        3.28304636       2.33476243      16.03735970       10      -0.00187114       0.00446304      -0.03789306
C        4.49510177       3.03756029      16.05196599       10       0.00305324      -0.00067365       0.00644946
C        2.07048886       4.43773916      16.04928438       10      -0.00227406      -0.00165567       0.04178462
C        3.28291233       5.13797220      16.04428361       10       0.00121876      -0.00389538      -0.01243162
C        0.85557396       6.53933180      16.03735970       10       0.00476904      -0.00180300      -0.03782383
C        2.07009748       7.23785784      16.05196599       10       0.00356958      -0.00134104       0.00645784
C       -0.35749241       8.64031903      16.03710467       10       0.00369531      -0.00367523       0.03974698
C        0.86100714       9.33860223      16.08492337       10       0.00283859       0.00248283       0.05612009
C        6.92090053       0.24060963      16.10021542       10      -0.00605737      -0.00496248       0.03824113
C        8.13239660       0.93978154      16.10715394       10      -0.00421938       0.00034230       0.03885729
C        5.70694336       2.33830918      16.07388040       10       0.00175695      -0.00154521       0.00742384
C        6.91884580       3.03870979      16.08782569       10      -0.00021882      -0.00397577       0.05665800
C        4.49540800       4.43783931      16.04928438       10       0.00287610      -0.00157149       0.04180176
C        5.70792697       5.13821193      16.05196599       10       0.00132773      -0.00467835       0.00652436
C        3.28296291       6.53806682      16.04928438       10       0.00104912      -0.00083528       0.04178344
C        4.49596981       7.23761878      16.05196599       10      -0.00237281       0.00047399       0.00638034
C        2.07042637       8.63689002      16.07388040       10      -0.00039254      -0.00118598       0.00734578
C        3.28316546       9.33585564      16.08782569       10      -0.00060601       0.00594500       0.05667450
C        9.34334748       0.23909140      16.10553612       10      -0.00180415       0.00401444      -0.01659144
C       10.55428140       0.93985370      16.10715394       10      -0.00508441      -0.00500925       0.03883573
C        8.13078884       2.33878891      16.10553612       10       0.00126484       0.00461215      -0.01643582
C        9.34290730       3.03731537      16.10715394       10       0.00722930      -0.00461713       0.03884661
C        6.91941106       4.43843459      16.07388040       10       0.00362889      -0.00134016       0.00743520
C        8.13185515       5.13487035      16.08492337       10       0.00487551      -0.00277019       0.05614625
C        5.71057675       6.53919606      16.03735970       10      -0.00540691      -0.00127195      -0.03784401
C        6.92052399       7.23760128      16.00502599       10      -0.00391455      -0.00397120       0.20009795
C        4.49569926       8.63658596      16.07388040       10       0.00269971       0.00381389       0.00744145
C        5.70519130       9.33828248      16.08492337       10      -0.00518754       0.00005928       0.05615805
O       -2.77763354       8.63556366      14.20076084       11       0.00140887       0.00202881       0.00402767
