132
Lattice="12.12 0.0 0.0 -6.06 10.496227893867395 0.0 0.0 0.0 40.0" Properties=species:S:1:pos:R:3:tags:I:1:forces:R:3 stress="0.0028728233335564655 2.178120953849589e-06 1.8568452323582904e-06 2.178120953849589e-06 0.0028654303118672776 -8.954877922657572e-07 1.8568452323582904e-06 -8.954877922657572e-07 0.0023269906760007633" energy=-1210.2550203306612 pbc="T T F"
C        0.00105717       0.00443496      10.00445546        2      -0.00015473       0.00294118      -0.00273732
Ti       0.00003724       1.75549906       8.71696972        0       0.00136058       0.00004712      -0.00217144
Ti       1.51632948       0.87993581      11.29354387        0       0.00102819      -0.00006352       0.00482397
O        0.00011473       1.75371225      12.23008024        3       0.00558954      -0.00223883       0.09702727
O        1.51285426       0.88174881       7.77535102        1      -0.00020318      -0.00040755      -0.00015522
C       -1.51585830       2.63033187      10.01239142        2      -0.00000801       0.00063453       0.00572937
Ti      -1.51562857       4.37957479       8.72041910        0       0.00086164      -0.00046916      -0.00088241
Ti      -0.00198862       3.50347994      11.30793308        0       0.00218530      -0.00209804       0.00383714
O       -1.51245227       4.38311438      12.23008024        3      -0.00023839       0.00861810       0.03498097
O       -0.00231806       3.50431856       7.77962408        1       0.00251472       0.00033138       0.00064618
C       -3.03005410       5.25456389      10.00898419        2      -0.00028311      -0.00023351      -0.00320602
Ti      -3.03011585       7.00381139       8.71517171        0       0.00053235       0.00092352      -0.00159083
Ti      -1.51511031       6.12823730      11.29852762        0      -0.00093287      -0.00009538       0.00766511
O       -3.03112435       7.00547876      12.23008024        3      -0.00012489      -0.00124948       0.10760983
O       -1.51586021       6.12663949       7.77740608        1       0.00124324      -0.00233947      -0.00120433
C       -4.54539375       7.87839759      10.00339436        2       0.00261681       0.00050056      -0.00359546
Ti      -4.54534924       9.62733213       8.71318588        0       0.00223632      -0.00243736      -0.00107253
Ti      -3.02970340       8.75258899      11.29447808        0      -0.00076019      -0.00064999       0.00214450
O       -4.54394358       9.62575845      12.23008024        3       0.00044745      -0.00240357       0.10591157
O       -3.03104399       8.75145390       7.77306456        1       0.00310708       0.00226262       0.00477439
C        3.03002163       0.00550156      10.00234275        2       0.00269641       0.00020157      -0.00041831
Ti       3.02945771       1.75567548       8.71395985        0       0.00229949      -0.00066420      -0.00118749
Ti       4.54442130       0.88056920      11.29415216        0       0.00323187       0.00077596       0.00091695
O        3.03055842       1.75475303      12.23008024        3       0.00073592       0.00190687       0.10671234
O        4.54487666       0.88183607       7.77325450        1       0.00087442      -0.00283585       0.00477823
C        1.51510464       2.62935804      10.00657980        2      -0.00083107       0.00033660      -0.00448599
Ti       1.51414188       4.37905114       8.71659500        0      -0.00126875      -0.00046394       0.00046864
Ti       3.03014577       3.50456770      11.29514198        0      -0.00214574      -0.00391780       0.00144339
O        1.51859581       4.38103079      12.23008024        3       0.00013892      -0.00188819       0.11675845
O        3.02857229       3.50519092       7.77563578        1       0.00355567      -0.00252699       0.00011302
C       -0.00024471       5.25432998      10.00731461        2      -0.00017439      -0.00200849      -0.00249113
Ti      -0.00053565       7.00318474       8.71410503        0       0.00103159      -0.00042991       0.00273400
Ti       1.51487514       6.12901109      11.29491887        0      -0.00175799      -0.00050442       0.00368582
O        0.00078390       7.00469179      12.23008024        3       0.00146783      -0.00162980       0.11729382
O        1.51420795       6.12746141       7.77511125        1      -0.00046099       0.00303008       0.00390293
C       -1.51526981       7.87961177      10.00286225        2       0.00104863       0.00043794      -0.00215653
Ti      -1.51556869       9.62739973       8.71150484        0      -0.00087518      -0.00220138       0.00638274
Ti      -0.00041826       8.75271548      11.29359791        0       0.00112320      -0.00069805       0.00328729
O       -1.51514336       9.62754271      12.23008024        3       0.00007569      -0.00099556       0.09606001
O       -0.00034918       8.75193883       7.77290326        1       0.00410516       0.00138658       0.00476426
C        6.05871594       0.00478212      10.00227163        2       0.00044579       0.00066419       0.00177740
Ti       6.05904459       1.75479127       8.71385519        0       0.00121800       0.00035117       0.00035162
Ti       7.57198607       0.87847163      11.29010796        0      -0.00433038      -0.00403026       0.00489603
O        6.05874830       1.75395467      12.23008024        3       0.00468028       0.00339854       0.09735221
O        7.57624114       0.88195596       7.77629275        1       0.00260819      -0.00027706       0.00088537
C        4.54440669       2.62957049      10.00355385        2       0.00076821      -0.00293639      -0.00164998
Ti       4.54493921       4.37917567       8.71452907        0       0.00171519      -0.00282134      -0.00272994
Ti       6.06077610       3.50334928      11.29579964        0       0.00115056       0.00102830       0.00333209
O        4.54441427       4.38014177      12.23008024        3      -0.00101224      -0.00412628       0.10265554
O        6.06191540       3.50486221       7.77630521        1      -0.00487316      -0.00328784       0.00138733
C        3.02969684       5.25383644      10.00384570        2       0.00006603      -0.00063563      -0.00144749
Ti       3.02987400       7.00273179       8.71355824        0      -0.00244637       0.00312126      -0.00138606
Ti       4.54451234       6.12814599      11.29527352        0       0.00200368       0.00067969       0.00045671
O        3.03043980       7.00312165      12.23008024        3      -0.00123188      -0.00035409       0.10261260
O        4.54535620       6.12823417       7.77466830        1      -0.00176468       0.00012565      -0.00034090
C        1.51469304       7.87804707      10.00278627        2      -0.00246221       0.00005763       0.00052651
Ti       1.51443109       9.62693700       8.71266331        0      -0.00046200       0.00088751       0.00358730
Ti       3.02969378       8.75281496      11.29475097        0       0.00091294       0.00171678       0.00329858
O        1.51509814       9.62642027      12.23008024        3       0.00235124       0.00281603       0.09695149
O        3.03034005       8.75303808       7.77385510        1      -0.00309484       0.00075520       0.00646943
C        9.08946536       0.00533705      10.00545575        2       0.00216228       0.00351682       0.00159343
Ti       9.08920599       1.75551015       8.72026527        0       0.00201581       0.00122541       0.00094715
Ti      10.60897885       0.87789105      11.29114452        0       0.00832472      -0.00301909       0.00364633
O        9.09219982       1.75011302      12.23008024        3      -0.00988819      -0.00050244       0.27906359
O       10.60403199       0.88236348       7.77781174        1       0.00041380      -0.00239622       0.00164602
C        7.57526062       2.62923894      10.00897446        2       0.00253366       0.00181825      -0.00063423
Ti       7.57546418       4.37874024       8.71671151        0      -0.00166185       0.00228051       0.00196541
Ti       9.09112621       3.50795442      11.31280193        0      -0.00429019       0.00680286       0.00296634
O        7.56967643       4.38187254      12.23008024        3       0.00083359      -0.00038115       0.08653195
O        9.09095447       3.50383298       7.78000810        1      -0.00214739       0.00057128       0.00412010
C        6.06005906       5.25366022      10.00426655        2      -0.00164732       0.00090115      -0.00153211
Ti       6.06012313       7.00277078       8.71429010        0      -0.00038495      -0.00044180      -0.00184079
Ti       7.57448659       6.12867985      11.29578097        0       0.00153717      -0.00256142       0.00418664
O        6.05843860       7.00302020      12.23008024        3       0.00048026       0.00337827       0.10838469
O        7.57586728       6.12654101       7.77630598        1      -0.00192540       0.00533202      -0.00029301
C        4.54507717       7.87800255      10.00337992        2      -0.00123385      -0.00182145      -0.00217419
Ti       4.54479404       9.62718036       8.71294467        0      -0.00044621      -0.00012082       0.00181413
Ti       6.06023317       8.75144944      11.29450913        0      -0.00056201       0.00249449       0.00324665
O        4.54402118       9.62417049      12.23008024        3      -0.00035815       0.00402011       0.10622377
O        6.05924721       8.75273839       7.77414309        1       0.00139359      -0.00054185       0.00115818
C        0.05765032       0.06714636      16.86933123       10       0.00197797      -0.00170855      -0.01232023
C        1.26668544       0.76951197      16.87771946       10       0.00093357      -0.00598868       0.00407082
C       -1.14037725       2.15644560      16.84496056       10       0.00051060       0.00377089       0.23719928
C        0.05340432       2.86720525      16.85259930       10      -0.00110841      -0.00413578       0.03106282
C       -2.37277790       4.29328047      16.84495501       10       0.00413972       0.00538554       0.46101657
C       -1.16176323       4.97247511      16.85259674       10       0.00207544      -0.00057172       0.00458798
C       -3.58429646       6.37542312      16.86933068       10      -0.00061553       0.00111523      -0.03933620
C       -2.37200556       7.07182268      16.87771926       10       0.00185514      -0.00402705      -0.01436228
C       -4.79512569       8.46849548      16.86743829       10       0.00035670      -0.00456069      -0.01685035
C       -3.58353286       9.16817361      16.87872795       10       0.00053949      -0.00436149      -0.03458797
C        2.47763926       0.07048656      16.87975297       10       0.00022005      -0.00502925      -0.02802628
C        3.68827227       0.77075525      16.87872786       10      -0.00209075      -0.00394644      -0.03368131
C        1.26897618       2.16784937      16.86933144       10       0.00122322      -0.00127131      -0.01447862
C        2.47747836       2.86986027      16.86027131       10      -0.00318990      -0.00499010      -0.03805097
C        0.05183031       4.26919294      16.82647142       10       0.00237459      -0.00468320       0.14867077
C        1.26298022       4.96815643      16.83814137       10      -0.00601458      -0.00276928      -0.09120828
C       -1.15977659       6.37506212      16.86933068       10       0.00043801      -0.00105601      -0.03174660
C        0.05261443       7.06908745      16.86027141       10      -0.00365205      -0.00076664      -0.03836670
C       -2.37187143       8.46972306      16.87975318       10      -0.00028298      -0.00465709      -0.02156056
C       -1.15987830       9.16737549      16.87872795       10      -0.00208429      -0.00146980      -0.04488023
C        4.89840785       0.06966130      16.87975297       10       0.00095676       0.00021671      -0.03121439
C        6.10936637       0.76855653      16.87771946       10      -0.00214596       0.00076735       0.00563796
C        3.68831785       2.16981977      16.86743816       10      -0.00132320       0.00480007      -0.01787413
C        4.89940680       2.86946972      16.86027131       10      -0.00270199       0.00004182      -0.02865103
C        2.47660220       4.26915261      16.84638781       10      -0.00213855       0.00064057      -0.05106692
C        3.68887657       4.96848628      16.84359995       10      -0.00430566       0.00162535      -0.00471879
C        1.26380254       6.36834750      16.84638771       10      -0.00457252      -0.00466860      -0.03717558
C        2.47618537       7.06749173      16.84359984       10      -0.00715479      -0.00150980      -0.02735863
C        0.05162999       8.46726793      16.86743829       10      -0.00136453       0.00024990      -0.01053870
C        1.26321737       9.16547653      16.86027116       10      -0.00295196       0.00045298      -0.04113961
C        7.31852530       0.06623177      16.86933123       10       0.00274060       0.00405924      -0.00027219
C        8.53215370       0.76859780      16.85259911       10       0.00259989       0.00622981       0.01124993
C        6.10726948       2.16705686      16.86933144       10      -0.00260873       0.00526027      -0.02138601
C        7.32310417       2.86656518      16.85259930       10       0.00093864       0.00280527       0.03070668
C        4.90079609       4.26878603      16.84638781       10      -0.00390215       0.00548218      -0.04822573
C        6.11444854       4.96792444      16.83814137       10       0.00174810      -0.00013281      -0.06697194
C        3.68862271       6.36799736      16.84052195       10      -0.00233845      -0.00022656      -0.04866443
C        4.90092939       7.06790481      16.84359984       10      -0.00267801      -0.00075282      -0.01884317
C        2.47587665       8.46695916      16.84638754       10      -0.00128157      -0.00021418      -0.03308716
C        3.68822606       9.16822489      16.83814096       10      -0.00308680       0.00075511      -0.06670947
C        9.74801692       0.07003898      16.82647137       10       0.00531072       0.00247318       0.13429621
C       10.96362062       0.76888656      16.85259911       10       0.00073178       0.00389268       0.00899615
C        8.51578881       2.15651871      16.84496056       10       0.00296583       0.00545147       0.24092934
C        9.74641171       2.86617527      16.60060130       10       0.00157222       0.00771873      -2.15183225
C        7.32506940       4.26868778      16.82647142       10      -0.00128012       0.00382604       0.12840340
C        8.53755738       4.97262275      16.85259674       10       0.00387174      -0.00087710       0.04146263
C        6.11302827       6.36864381      16.84638771       10      -0.00112868       0.00086904      -0.05891095
C        7.32381979       7.07017453      16.86027141       10       0.00270669      -0.00509863      -0.03226633
C        4.90085674       8.46752373      16.84638754       10       0.00169963      -0.00010316      -0.03899452
C        6.11329237       9.16658577      16.86027116       10      -0.00089449      -0.00248468      -0.03033014
O        9.78989823       2.96010353      15.02606755       11      -0.00705256      -0.00398695      -0.00153630
H        9.54403289       2.11880496      14.59454965       12       0.00218188       0.00158677       0.00183134
