132
Lattice="12.12 0.0 0.0 -6.06 10.496227893867395 0.0 0.0 0.0 40.0" Properties=species:S:1:pos:R:3:tags:I:1:forces:R:3 stress="0.0028288433055593536 2.6876867729096816e-06 -1.700864679826154e-06 2.6876867729096816e-06 0.0028315839111350913 -5.649698804411984e-07 -1.700864679826154e-06 -5.649698804411984e-07 0.0018054800485946927" energy=-1208.4526773056098 pbc="T T F"
C        0.00018350       0.00060558      10.00123787        2       0.00020718      -0.00050453       0.00266131
Ti       0.00016318       1.74985164       8.71066568        0      -0.00043028      -0.00006011       0.00570763
Ti       1.51459391       0.87549589      11.29193189        0      -0.00023379      -0.00025845      -0.00038872
O        0.00142923       1.74938940      12.23008024        3      -0.00035502      -0.00013761      -0.00202593
O        1.51466537       0.87549268       7.77112168        1       0.00055231      -0.00076186      -0.00012656
C       -1.51484051       2.62444933      10.00273465        2      -0.00046668      -0.00034392       0.00402842
Ti      -1.51506430       4.37426124       8.71095178        0      -0.00037986      -0.00041616       0.00403198
Ti      -0.00162932       3.49876924      11.29491869        0      -0.00036192       0.00103364       0.00108260
O       -1.51571069       4.37446872      12.23008024        3       0.00074046      -0.00089995       0.02612958
O       -0.00035631       3.49938981       7.77149815        1      -0.00048350      -0.00066738       0.00352218
C       -3.03028914       5.24912917      10.00147656        2      -0.00000229      -0.00014523       0.00258178
Ti      -3.03016538       6.99830318       8.71059369        0       0.00021380      -0.00121362      -0.00120128
Ti      -1.51568685       6.12265669      11.29193513        0       0.00025123       0.00347114      -0.00176730
O       -3.03051377       6.99783346      12.23008024        3       0.00039117       0.00076116       0.02809127
O       -1.51507412       6.12310668       7.77142341        1      -0.00079003       0.00095769       0.00009848
C       -4.54512806       7.87293318      10.00095153        2      -0.00011805       0.00009165       0.00007666
Ti      -4.54510950       9.62222640       8.71077851        0      -0.00079126       0.00084286      -0.00222843
Ti      -3.03027154       8.74730716      11.29199805        0       0.00059735       0.00180003      -0.00287143
O       -4.54515226       9.62192193      12.23008024        3       0.00030298      -0.00045955       0.01935791
O       -3.03036104       8.74757300       7.77080803        1       0.00119555      -0.00061225       0.00033881
C        3.03012483       0.00043701      10.00084053        2      -0.00063128       0.00023113       0.00053821
Ti       3.02986404       1.75006566       8.71057436        0      -0.00110445      -0.00034683      -0.00133121
Ti       4.54487441       0.87536798      11.29208046        0      -0.00179303      -0.00135362      -0.00302357
O        3.03014727       1.75035147      12.23008024        3      -0.00033679      -0.00072203       0.02412932
O        4.54482306       0.87553181       7.77085013        1       0.00050994      -0.00144858       0.00045802
C        1.51504039       2.62455153      10.00097423        2       0.00030623      -0.00051839       0.00223941
Ti       1.51469216       4.37393303       8.71086085        0      -0.00030399      -0.00045561       0.00222234
Ti       3.02962383       3.49933226      11.29186005        0       0.00052537       0.00067156      -0.00145599
O        1.51559841       4.37439256      12.23008024        3       0.00030669       0.00042924       0.03259428
O        3.02983248       3.49951350       7.77124530        1      -0.00051461       0.00028940      -0.00104042
C       -0.00051883       5.24851290      10.00145544        2       0.00021009       0.00081717       0.00190244
Ti      -0.00032978       6.99822056       8.71091708        0      -0.00042858      -0.00101652      -0.00149880
Ti       1.51438955       6.12321034      11.29223090        0       0.00118232       0.00093197      -0.00191680
O       -0.00026638       6.99796704      12.23008024        3       0.00065873       0.00143642       0.03129913
O        1.51474453       6.12344287       7.77157650        1      -0.00008667      -0.00038494      -0.00126799
C       -1.51531791       7.87316361      10.00072979        2       0.00009158      -0.00108304       0.00122896
Ti      -1.51528449       9.62220740       8.71020662        0       0.00054356       0.00025819      -0.00034187
Ti      -0.00029526       8.74714802      11.29185349        0      -0.00045785       0.00040177      -0.00132307
O       -1.51526274       9.62190561      12.23008024        3       0.00005678       0.00065222       0.02728714
O        0.00016486       8.74742411       7.77110391        1      -0.00152072       0.00084563       0.00048030
C        6.05932287       0.00039237      10.00094486        2       0.00046757       0.00061276       0.00098131
Ti       6.05963651       1.74994178       8.71078785        0       0.00100174       0.00033541      -0.00135821
Ti       7.57475828       0.87581802      11.29199966        0      -0.00273941      -0.00136299      -0.00344724
O        6.05922662       1.75029055      12.23008024        3       0.00072670      -0.00062736       0.02686523
O        7.57522749       0.87543750       7.77198767        1      -0.00146275      -0.00048862      -0.00147447
C        4.54465177       2.62461976      10.00096683        2      -0.00019711      -0.00014982       0.00026815
Ti       4.54497152       4.37402902       8.71073797        0      -0.00058097       0.00019725      -0.00012080
Ti       6.06010148       3.49929602      11.29224942        0      -0.00118405      -0.00075607      -0.00401169
O        4.54430365       4.37437468      12.23008024        3       0.00036898      -0.00085887       0.03411555
O        6.05991077       3.49942271       7.77164906        1       0.00044761       0.00000146      -0.00132876
C        3.02964013       5.24881597      10.00100110        2       0.00004005      -0.00015715       0.00162595
Ti       3.02975158       6.99829888       8.71092391        0       0.00003157      -0.00052553      -0.00058897
Ti       4.54464795       6.12358619      11.29211589        0       0.00048066      -0.00096586      -0.00006007
O        3.02959044       6.99806745      12.23008024        3       0.00015282      -0.00035612       0.03858423
O        4.54482059       6.12353006       7.77136493        1      -0.00014875      -0.00023080      -0.00012876
C        1.51459968       7.87280367      10.00124738        2       0.00061519      -0.00031403       0.00025254
Ti       1.51459460       9.62225919       8.71126843        0       0.00099694       0.00069733      -0.00181774
Ti       3.02983694       8.74803832      11.29274221        0      -0.00076925      -0.00161379      -0.00272976
O        1.51431227       9.62143094      12.23008024        3      -0.00048453      -0.00075184       0.02755710
O        3.02986064       8.74787591       7.77191333        1      -0.00009942      -0.00023386      -0.00137007
C        9.08984042       0.00105392      10.00218021        2      -0.00015779      -0.00082978       0.00030882
Ti       9.08976704       1.74984750       8.71146725        0      -0.00006374      -0.00000380       0.00276803
Ti      10.60442065       0.87697622      11.29620151        0      -0.00130859      -0.00110481      -0.00047197
O        9.08906606       1.75066313      12.23008024        3      -0.00003139      -0.00025932       0.02528103
O       10.60460254       0.87552806       7.77196807        1       0.00071169      -0.00007971       0.00233964
C        7.57445135       2.62456030      10.00187790        2       0.00010163      -0.00028662       0.00187884
Ti       7.57497704       4.37411131       8.71122277        0       0.00000612      -0.00057202       0.00174265
Ti       9.09025642       3.49894131      11.29613462        0      -0.00117853       0.00066098      -0.00094075
O        7.57419145       4.37431739      12.23008024        3       0.00004158      -0.00027678       0.03643469
O        9.08994722       3.49913603       7.77252040        1      -0.00010381       0.00047556       0.00076737
C        6.05994710       5.24869717      10.00126369        2      -0.00010202       0.00016057       0.00101287
Ti       6.05994967       6.99821498       8.71069049        0      -0.00040478      -0.00013440      -0.00056709
Ti       7.57469682       6.12335592      11.29165804        0       0.00033648       0.00165183      -0.00355472
O        6.05944280       6.99816653      12.23008024        3       0.00089180      -0.00030629       0.02999760
O        7.57468349       6.12334173       7.77142844        1       0.00062881      -0.00026834      -0.00069639
C        4.54471833       7.87302549      10.00110825        2      -0.00018423      -0.00075410       0.00140088
Ti       4.54501695       9.62244141       8.71125348        0      -0.00034167       0.00032226       0.00188985
Ti       6.05971598       8.74782034      11.29210769        0       0.00040096      -0.00188251      -0.00203547
O        4.54508705       9.62064020      12.23008024        3      -0.00033098      -0.00159391       0.02021321
O        6.05968775       8.74760808       7.77140378        1      -0.00061031       0.00009168      -0.00092549
C        0.06711988       0.05458287      18.10010046       10       0.00155431      -0.00390126      -0.00615838
C        1.27651044       0.75610931      18.10848869       10       0.00513405       0.00247710       0.02144538
C       -1.12819604       2.14496668      18.07572979       10      -0.00119193      -0.00479189       0.51392552
C        0.06402640       2.85385707      18.08336853       10      -0.00132309      -0.00044179       0.03213437
C       -2.36348432       4.28198168      18.07572424       10       0.00263638      -0.00308007       0.29232425
C       -1.15192013       4.95918619      18.08336597       10      -0.00194793      -0.00050535       0.03894249
C       -3.57519283       6.36310655      18.10009991       10       0.00412703      -0.00232781       0.02779997
C       -2.36241506       7.05912182      18.10848849       10      -0.00189678       0.00080076       0.02739443
C       -4.78614077       8.45582490      18.09820752       10      -0.00130027      -0.00220930       0.00818646
C       -3.57437007       9.15507438      18.10949718       10       0.00266267       0.00199801      -0.00359455
C        2.48704023       0.05727346      18.11052220       10       0.00038391       0.00248702      -0.00215557
C        3.69750183       0.75776357      18.10949709       10      -0.00144392      -0.00293831      -0.00323340
C        1.27981880       2.15429808      18.10010067       10      -0.00023051       0.00084351      -0.00640647
C        2.48708314       2.85680289      18.09104054       10      -0.00238073      -0.00030523      -0.00916899
C        0.06110467       4.25626702      18.05724065       10      -0.00068452       0.00114147       0.15475320
C        1.27174859       4.95538125      18.06891060       10       0.00046962      -0.00002772      -0.05300671
C       -1.14993238       6.36188159      18.10009991       10       0.00007215      -0.00056608       0.01768150
C        0.06197967       7.05700851      18.09104064       10      -0.00047820      -0.00285545      -0.02535964
C       -2.36243097       8.45713663      18.11052241       10      -0.00052071       0.00106268      -0.00680917
C       -1.15045252       9.15508070      18.10949718       10      -0.00154750      -0.00325779      -0.01055297
C        4.90793566       0.05728273      18.11052220       10       0.00111179       0.00298254      -0.00763421
C        6.11877705       0.75628965      18.10848869       10      -0.00158126      -0.00048473       0.03131386
C        3.69745550       2.15680484      18.09820739       10       0.00002703      -0.00006936       0.00316368
C        4.90811046       2.85680561      18.09104054       10      -0.00115718      -0.00099554      -0.00442189
C        2.48532322       4.25617575      18.07715704       10       0.00000892      -0.00050827      -0.02457787
C        3.69708827       4.95625453      18.07436918       10      -0.00231736      -0.00067338       0.00417439
C        1.27335387       6.35612038      18.07715694       10       0.00121482       0.00269132      -0.01843812
C        2.48525653       7.05585119      18.07436907       10       0.00119620      -0.00034676       0.00274850
C        0.06120141       8.45559620      18.09820752       10       0.00276596       0.00033632       0.01165766
C        1.27286286       9.15425816      18.09104039       10       0.00057268      -0.00343975      -0.02318514
C        7.32893199       0.05509880      18.10010046       10       0.00182651       0.00123373       0.01654555
C        8.54271227       0.75834724      18.08336834       10      -0.00119174      -0.00128734       0.04360927
C        6.11538464       2.15448596      18.10010067       10       0.00134185       0.00131415       0.02327373
C        7.33073986       2.85457677      18.08336853       10      -0.00214529       0.00444678       0.02363698
C        4.90911840       4.25636563      18.07715704       10      -0.00172999      -0.00139752      -0.02461183
C        6.12261524       4.95580589      18.06891060       10      -0.00109585       0.00150289      -0.02991892
C        3.69722381       6.35602739      18.07129118       10       0.00162413       0.00105716      -0.02708464
C        4.90934603       7.05609790      18.07436907       10      -0.00006331       0.00290667       0.00635219
C        2.48533523       8.45527119      18.07715677       10       0.00107162       0.00303792      -0.01808995
C        3.69760011       9.15713589      18.06891019       10      -0.00130350       0.00020671      -0.04741028
C        9.75775588       0.05903406      18.05724060       10      -0.00158771      -0.00002928       0.15350477
C       10.97354685       0.75798035      18.08336834       10       0.00449849      -0.00209532       0.03344906
C        8.52375680       2.14623524      18.07572979       10       0.00292570      -0.00183551       0.28179464
C        9.75577213       2.85882903      17.83137053       10      -0.00470849       0.00150043      -1.95932297
C        7.33325021       4.25693345      18.05724065       10       0.00123069       0.00113453       0.14701143
C        8.54633538       4.96056161      18.08336597       10      -0.00441980       0.00144749       0.02325678
C        6.12148267       6.35645887      18.07715694       10       0.00171617       0.00402505      -0.02212230
C        7.33289250       7.05737774      18.09104064       10       0.00301345       0.00035083      -0.00375703
C        4.90982602       8.45557209      18.07715677       10      -0.00283402       0.00362343      -0.02088050
C        6.12236649       9.15399273      18.09104039       10       0.00457511       0.00166178      -0.00903479
O        9.82971721       2.81871606      16.24465689       11       0.00331528       0.00198281       0.00295722
H        9.04696813       3.26988896      15.88342310       12      -0.00321244       0.00254303      -0.00303691
