132
Lattice="12.12 0.0 0.0 -6.06 10.496227893867395 0.0 0.0 0.0 40.0" Properties=species:S:1:pos:R:3:tags:I:1:forces:R:3 stress="0.0028225822633847625 -1.5905955853809493e-06 4.085009236925165e-06 -1.5905955853809493e-06 0.0028172123555647716 -3.557395558652834e-06 4.085009236925165e-06 -3.557395558652834e-06 0.0022123417644202194" energy=-1210.0025505850115 pbc="T T F"
C        0.00615071      -0.00163325       9.99612319        2       0.00038465      -0.00065030       0.00158547
Ti       0.00369102       1.74915001       8.68928795        0       0.00231166      -0.00077232       0.00026010
Ti       1.51647368       0.87587545      11.30230665        0       0.00046580       0.00010548       0.00100471
O        0.00325866       1.74885085      12.23008024        3       0.00099111      -0.00040742       0.01784777
O        1.51568053       0.87653276       7.76621400        1       0.00115559      -0.00056865       0.00045050
C       -1.51313631       2.62574032      10.01125619        2       0.00163734      -0.00062533      -0.00217390
Ti      -1.51319806       4.37692748       8.69281821        0      -0.00019459      -0.00063720       0.00029197
Ti      -0.00119886       3.49806632      11.31140451        0      -0.00278761       0.00013551       0.00112782
O       -1.51111976       4.37765057      12.23008024        3      -0.00045543      -0.00253306      -0.10448340
O       -0.00058890       3.49978893       7.77223223        1       0.00016651      -0.00048000      -0.00070676
C       -3.02791202       5.25115431      10.00478246        2       0.00008079       0.00219129       0.00046018
Ti      -3.02924801       6.99988363       8.69194713        0       0.00134389       0.00194696      -0.00149745
Ti      -1.51264956       6.12220153      11.30913784        0       0.00182956      -0.00385938       0.00299394
O       -3.02788393       6.99825293      12.23008024        3      -0.00017638       0.00013434       0.01759817
O       -1.51433179       6.12275026       7.77047057        1       0.00072817       0.00047107       0.00125014
C       -4.54368038       7.87359657      10.00024461        2       0.00123185      -0.00063716       0.00161850
Ti      -4.54335479       9.62152249       8.68751983        0       0.00087639      -0.00051181      -0.00162955
Ti      -3.02823500       8.74826365      11.30280015        0      -0.00044696      -0.00002032       0.00026400
O       -4.54265116       9.62063348      12.23008024        3       0.00035887      -0.00003999       0.03180862
O       -3.02895001       8.74600702       7.76524142        1       0.00076910       0.00020997      -0.00049403
C        3.03129556       0.00045054       9.99941995        2       0.00084209      -0.00026591       0.00183342
Ti       3.03134814       1.75159916       8.69102980        0      -0.00005286       0.00003614      -0.00288787
Ti       4.54811924       0.87612749      11.30223489        0      -0.00079195      -0.00082785      -0.00081563
O        3.03297927       1.75007297      12.23008024        3       0.00078486      -0.00057179       0.02641298
O        4.54660259       0.87662126       7.76645834        1      -0.00053021      -0.00119988      -0.00247162
C        1.51848385       2.62372209       9.99927029        2       0.00073601      -0.00032448       0.00164498
Ti       1.51630512       4.37471273       8.69279446        0       0.00153457      -0.00000984      -0.00070479
Ti       3.03120911       3.49893699      11.30292206        0       0.00176745      -0.00074468      -0.00000092
O        1.51460377       4.37342109      12.23008024        3       0.00146381       0.00083412       0.02275532
O        3.03095107       3.50077121       7.76809129        1      -0.00038159       0.00134311      -0.00011780
C        0.00213847       5.25047293      10.00147094        2       0.00105472      -0.00021943       0.00287761
Ti       0.00153316       6.99907788       8.69169680        0       0.00086858      -0.00024728      -0.00107019
Ti       1.51657806       6.12313416      11.30374593        0      -0.00028311       0.00080118      -0.00113790
O        0.00235495       7.00023672      12.23008024        3       0.00188546       0.00114461      -0.03961092
O        1.51591749       6.12332411       7.76882411        1       0.00091611      -0.00144233      -0.00179743
C       -1.51364576       7.87435849       9.99962360        2       0.00007039      -0.00053835       0.00227971
Ti      -1.51469265       9.62217131       8.68896144        0       0.00083002      -0.00072507      -0.00428059
Ti       0.00327807       8.74951065      11.30251895        0       0.00049477       0.00024243      -0.00025333
O       -1.51236239       9.62290935      12.23008024        3       0.00009666      -0.00039330      -0.00008076
O        0.00085404       8.74712248       7.76552405        1       0.00121968      -0.00172307      -0.00148128
C        6.05817046      -0.00128993       9.99585911        2      -0.00014522      -0.00026278       0.00115831
Ti       6.05963438       1.74912967       8.68951169        0      -0.00180451      -0.00207189       0.00005934
Ti       7.57857766       0.87754540      11.29584579        0       0.00489453       0.00155554       0.00369049
O        6.06305064       1.74808674      12.23008024        3      -0.00086980      -0.00068428      -0.00002809
O        7.57767803       0.87758315       7.76870334        1       0.00026655      -0.00042048       0.00187747
C        4.54639152       2.62446684      10.00022580        2       0.00131793      -0.00051276       0.00164972
Ti       4.54647039       4.37462753       8.69054792        0      -0.00066760       0.00205334      -0.00025335
Ti       6.06312566       3.49783616      11.30595087        0       0.00029295      -0.00064396       0.00083829
O        4.54675992       4.37378957      12.23008024        3      -0.00015997       0.00050122      -0.02035824
O        6.06327079       3.49984384       7.77044788        1       0.00159956      -0.00030967      -0.00045592
C        3.03152230       5.24956569      10.00126762        2       0.00028259      -0.00089987       0.00172309
Ti       3.03089579       6.99875294       8.69053858        0       0.00214371      -0.00120155      -0.00352875
Ti       4.54611459       6.12264265      11.30229742        0       0.00226063      -0.00023777       0.00008628
O        3.03096473       6.99976196      12.23008024        3       0.00146072      -0.00138822      -0.00016992
O        4.54582115       6.12359291       7.76784420        1       0.00079998      -0.00033438      -0.00102275
C        1.51640387       7.87425787       9.99963545        2       0.00087565       0.00051878       0.00077130
Ti       1.51410372       9.62181221       8.68713329        0      -0.00036737      -0.00151668       0.00050693
Ti       3.03249141       8.75019607      11.30335892        0      -0.00057452       0.00054101      -0.00058715
O        1.51560678       9.62399345      12.23008024        3       0.00107071      -0.00037035       0.00167056
O        3.03131180       8.74852361       7.76740602        1       0.00118330       0.00033637      -0.00102691
C        9.09091022       0.00018859       9.99988837        2       0.00085907       0.00051841       0.00350508
Ti       9.09121765       1.74956561       8.69221782        0       0.00077089       0.00099047      -0.00017014
Ti      10.60927775       0.87558688      11.28463174        0      -0.00140187       0.00050213       0.00037312
O        9.09471511       1.74420761      12.23008024        3       0.00269722       0.00187329       0.05626011
O       10.60594713       0.87817005       7.76832157        1       0.00070495       0.00019871       0.00027792
C        7.57697355       2.62405928      10.00617057        2      -0.00100771      -0.00044181       0.00093238
Ti       7.57589174       4.37568166       8.69323645        0       0.00221040      -0.00114039       0.00012934
Ti       9.09318057       3.50085161      11.30607866        0       0.00080767       0.00047858      -0.00080316
O        7.57410352       4.37577126      12.23008024        3      -0.00086429       0.00060147      -0.05762051
O        9.09224971       3.49965660       7.77444858        1       0.00081504      -0.00029165      -0.00369442
C        6.06023266       5.24937800      10.00052567        2       0.00093604      -0.00041136       0.00208975
Ti       6.06069326       6.99802129       8.69147807        0      -0.00115214      -0.00019125       0.00037529
Ti       7.57735311       6.12229744      11.30868106        0      -0.00013379       0.00027745       0.00076854
O        6.06097964       6.99849030      12.23008024        3       0.00012228       0.00099802       0.00933685
O        7.57689531       6.12253233       7.77024501        1       0.00067411      -0.00118691      -0.00028195
C        4.54623233       7.87365781       9.99963755        2       0.00082300       0.00058874       0.00145161
Ti       4.54716759       9.62263257       8.68766032        0       0.00156726      -0.00149411       0.00138681
Ti       6.05950593       8.74870006      11.30410098        0       0.00125397      -0.00018269      -0.00008024
O        4.54652380       9.62455416      12.23008024        3      -0.00023083      -0.00156654       0.04428821
O        6.06101080       8.74703285       7.76603614        1      -0.00058605      -0.00015793       0.00091662
C        0.05811173       0.07214484      16.86933123       10      -0.00476830      -0.00109549       0.00268419
C        1.26366103       0.77633299      16.87771946       10      -0.00000169       0.00002287       0.00506331
C       -1.13493286       2.16078398      16.84496056       10      -0.00097399       0.00045941       0.37244254
C        0.05214550       2.87380250      16.85259930       10       0.00028147       0.00157520       0.03605004
C       -2.37534170       4.31405959      16.84495501       10      -0.00303460       0.00186124       0.59458000
C       -1.16358819       4.98327488      16.85259674       10      -0.00193313       0.00251682       0.00403808
C       -3.58818530       6.38722959      16.86933068       10      -0.00450869       0.00165534       0.00085112
C       -2.37581914       7.08075438      16.87771926       10      -0.00225462      -0.00069402       0.00699584
C       -4.79861481       8.47622954      16.86743829       10      -0.00307760       0.00068538       0.01776352
C       -3.58745609       9.17580908      16.87872795       10       0.00181943       0.00318101       0.00257981
C        2.47487841       0.07673061      16.87975297       10       0.00053924       0.00092988       0.02959652
C        3.68360964       0.77753285      16.87872786       10       0.00047967       0.00212468       0.00876154
C        1.26810169       2.17237619      16.86933144       10      -0.00096531      -0.00116098       0.02397443
C        2.47393059       2.87667367      16.86027131       10      -0.00197320       0.00115178       0.01517581
C        0.05197725       4.27884421      16.82647142       10      -0.00265609       0.00254093       0.00897008
C        1.25955321       4.97534383      16.83814137       10      -0.00213589       0.00242037      -0.00802347
C       -1.16310142       6.38683897      16.86933068       10      -0.00050874       0.00117487      -0.01713790
C        0.04917021       7.07796541      16.86027141       10       0.00081347       0.00089697       0.00159878
C       -2.37562964       8.47922327      16.87975318       10      -0.00268506      -0.00251548       0.02062844
C       -1.16456288       9.17599767      16.87872795       10      -0.00281681      -0.00223228      -0.00659360
C        4.89251438       0.07674193      16.87975297       10       0.00002318      -0.00202978       0.01940428
C        6.10376130       0.77630649      16.87771946       10       0.00044632      -0.00021321       0.02078106
C        3.68344004       2.17611148      16.86743816       10      -0.00004288       0.00210309       0.01939179
C        4.89347445       2.87720335      16.86027131       10       0.00172760      -0.00190200       0.01340513
C        2.47230480       4.27516800      16.84638781       10      -0.00217166       0.00162318       0.00515124
C        3.68422738       4.97675016      16.84359995       10       0.00069405      -0.00106012       0.00314307
C        1.25931933       6.37659690      16.84638771       10       0.00053486       0.00115276      -0.01245952
C        2.47287255       7.07564962      16.84359984       10      -0.00090174       0.00123579      -0.00155408
C        0.04717289       8.47563797      16.86743829       10      -0.00117768       0.00020593      -0.01474063
C        1.25901070       9.17253912      16.86027116       10      -0.00295856       0.00369191       0.01383375
C        7.30953210       0.07150884      16.86933123       10       0.00100676       0.00241019       0.00043983
C        8.52443991       0.77452193      16.85259911       10       0.00048424       0.00115864       0.05176225
C        6.09856357       2.17216292      16.86933144       10       0.00210606      -0.00069190      -0.00627110
C        7.31465672       2.87409816      16.85259930       10       0.00071687       0.00238120       0.02629040
C        4.89555595       4.27576703      16.84638781       10       0.00157995      -0.00313233      -0.01184932
C        6.10912788       4.97630532      16.83814137       10       0.00067150      -0.00208990      -0.01227361
C        3.68431153       6.37643120      16.84052195       10      -0.00004851       0.00058812      -0.00732880
C        4.89633690       7.07606658      16.84359984       10      -0.00051972       0.00110764       0.00944612
C        2.47079156       8.47558369      16.84638754       10      -0.00338020       0.00087070       0.01915503
C        3.68442994       9.17562083      16.83814096       10      -0.00183585      -0.00184373      -0.00262731
C        9.74424944       0.07343685      16.82647137       10      -0.00343738      -0.00447222      -0.01697802
C       10.96316590       0.77534212      16.85259911       10       0.00078688      -0.00048169       0.04246048
C        8.50080911       2.15984928      16.84496056       10      -0.00077634       0.00019221       0.38102338
C        9.74183580       2.87536528      16.60060130       10      -0.00108898      -0.00142214      -1.75000961
C        7.31656325       4.27979456      16.82647142       10       0.00112916       0.00085855      -0.00870285
C        8.53226007       4.98414096      16.85259674       10       0.00017473       0.00150496       0.02080728
C        6.10926957       6.37764968      16.84638771       10      -0.00337857      -0.00197157       0.00652840
C        7.31940739       7.07854073      16.86027141       10      -0.00304567      -0.00100371       0.01128684
C        4.89778170       8.47607211      16.84638754       10      -0.00031653      -0.00025527       0.02759971
C        6.10948897       9.17285312      16.86027116       10       0.00373415       0.00225912       0.01774711
O        9.74308274       2.97209713      15.06194518       11      -0.00457105       0.00424835       0.00546129
H        9.65794073       2.08797206      14.65361595       12      -0.00132544      -0.00375556      -0.00503440
