131
Lattice="12.12 0.0 0.0 -6.06 10.496227893867395 0.0 0.0 0.0 40.0" Properties=species:S:1:pos:R:3:tags:I:1:forces:R:3 stress="0.0028586789192914454 -2.83515259648603e-07 -3.6839806312012987e-07 -2.83515259648603e-07 0.0028582001747900197 9.67314180826079e-07 -3.6839806312012987e-07 9.67314180826079e-07 0.001767472792785087" energy=-1203.5466042462567 pbc="T T F"
C        0.00009086      -0.00001031      10.00057045        2       0.00040601      -0.00013157       0.00226543
Ti       0.00037340       1.74929292       8.68812310        0      -0.00025404       0.00013981      -0.00476804
Ti       1.51564213       0.87606616      11.31039271        0      -0.00001928      -0.00004503       0.00416445
O       -0.00030069       1.74941161      12.23008024        3      -0.00004343       0.00015765       0.02327069
O        1.51541394       0.87377933       7.77004104        1       0.00003977       0.00006772       0.00079385
C       -1.51501761       2.62411370       9.99984128        2       0.00012078       0.00021484       0.00140738
Ti      -1.51502871       4.37405531       8.68894230        0      -0.00011210      -0.00009691      -0.00460021
Ti      -0.00009534       3.49856260      11.31135397        0       0.00042826       0.00026625       0.00265013
O       -1.51516646       4.37286277      12.23008024        3       0.00001794      -0.00005306       0.02668618
O       -0.00016795       3.49901034       7.76905116        1      -0.00027323       0.00003312      -0.00001608
C       -3.03015490       5.24809760      10.00111381        2      -0.00003108       0.00044683       0.00261202
Ti      -3.03016211       6.99750069       8.69414826        0      -0.00019954       0.00017089      -0.00462208
Ti      -1.51397446       6.12275808      11.31332203        0      -0.00022559       0.00001100       0.00477034
O       -3.03070285       6.99779452      12.23008024        3       0.00011318       0.00133491       0.03863490
O       -1.51548308       6.12402400       7.77149438        1      -0.00004432       0.00025015       0.00132900
C       -4.54578979       7.87182723      10.00271411        2      -0.00016199      -0.00004211       0.00230243
Ti      -4.54492336       9.62149405       8.69333276        0      -0.00005613       0.00011261      -0.00489668
Ti      -3.02864742       8.74638101      11.33309367        0       0.00011751       0.00001230       0.00200272
O       -4.54471475       9.62143498      12.23008024        3       0.00097426      -0.00044718       0.02719947
O       -3.02962543       8.74673566       7.77535921        1      -0.00001542       0.00008625       0.00045040
C        3.02997785       0.00096549      10.00282243        2       0.00005118       0.00033560       0.00234298
Ti       3.03000217       1.74804225       8.69050129        0      -0.00005172       0.00083817      -0.00453689
Ti       4.54462537       0.87702215      11.31076322        0       0.00009035      -0.00001253       0.00441734
O        3.02962855       1.75181713      12.23008024        3       0.00001576      -0.00002718       0.02022021
O        4.54467837       0.87363009       7.77026730        1      -0.00006533       0.00001752       0.00099890
C        1.51448596       2.62441640      10.00007508        2       0.00006512       0.00006536       0.00188745
Ti       1.51506603       4.37367428       8.68829361        0      -0.00013356       0.00000020      -0.00454197
Ti       3.02983646       3.49941110      11.31172642        0      -0.00001353       0.00031201       0.00239239
O        1.51480525       4.37344246      12.23008024        3       0.00018808       0.00021630       0.02317696
O        3.02984490       3.49796677       7.76933803        1      -0.00014895       0.00047270      -0.00018088
C       -0.00018731       5.24789412      10.00098499        2      -0.00020357       0.00029833       0.00226187
Ti      -0.00093292       6.99804536       8.69234040        0       0.00049612      -0.00020066      -0.00427067
Ti       1.51522212       6.12273308      11.31207340        0       0.00008059       0.00003560       0.00298585
O        0.00145550       6.99674289      12.23008024        3      -0.00020536       0.00030680       0.02425052
O        1.51384961       6.12350015       7.76989542        1       0.00014412      -0.00002178       0.00021111
C       -1.51477709       7.87214132      10.00425757        2       0.00015909      -0.00001098       0.00256515
Ti      -1.51503219       9.62182896       8.69415956        0      -0.00018132       0.00016929      -0.00460254
Ti       0.00051745       8.74602197      11.31458051        0      -0.00010264       0.00037518       0.00464514
O       -1.51534011       9.62223011      12.23008024        3      -0.00096556      -0.00060872       0.03456292
O       -0.00124252       8.74676487       7.77173254        1      -0.00015526       0.00005260       0.00130327
C        6.05998906       0.00029464      10.00123663        2      -0.00035419      -0.00005699       0.00267850
Ti       6.05967065       1.74897396       8.68867675        0       0.00019478       0.00024304      -0.00465962
Ti       7.57477140       0.87496371      11.31126696        0      -0.00007990       0.00022828       0.00277258
O        6.06051079       1.74986099      12.23008024        3      -0.00006328       0.00022691       0.02608629
O        7.57464283       0.87436984       7.76922001        1       0.00001924       0.00005827       0.00001574
C        4.54534363       2.62450625      10.00023517        2      -0.00009799       0.00003902       0.00186159
Ti       4.54482943       4.37354248       8.68772584        0       0.00005343      -0.00000068      -0.00460691
Ti       6.06015927       3.49878875      11.31141344        0      -0.00053855       0.00038937       0.00237695
O        4.54503509       4.37350311      12.23008024        3      -0.00027270       0.00025189       0.02040076
O        6.06009866       3.49864248       7.76887133        1       0.00020254      -0.00000832      -0.00019079
C        3.02995342       5.24814936       9.99942350        2      -0.00013720       0.00015088       0.00173351
Ti       3.02978131       6.99734997       8.68839792        0       0.00001205       0.00016802      -0.00454451
Ti       4.54448110       6.12266984      11.31160977        0      -0.00016600       0.00000348       0.00243055
O        3.03001187       6.99763548      12.23008024        3      -0.00003950      -0.00014103       0.02328588
O        4.54556906       6.12335532       7.76932245        1      -0.00039491      -0.00004891      -0.00016564
C        1.51515758       7.87250487      10.00111165        2      -0.00026228       0.00017481       0.00222892
Ti       1.51451726       9.62131702       8.68919919        0       0.00011664       0.00022806      -0.00461986
Ti       3.03028892       8.74696750      11.31123619        0       0.00005359      -0.00035761       0.00272525
O        1.51575963       9.62210537      12.23008024        3       0.00010410       0.00012893       0.02420109
O        3.02966795       8.74689307       7.76907828        1      -0.00008068       0.00030921       0.00002392
C        9.09000129       0.00001606       9.99983079        2      -0.00006094      -0.00010673       0.00146568
Ti       9.08989014       1.74943297       8.68885084        0       0.00006871       0.00004727      -0.00536284
Ti      10.60530008       0.87454479      11.31195005        0       0.00005611       0.00004477       0.00249149
O        9.09013508       1.74934665      12.23008024        3       0.00005589       0.00007842       0.01878211
O       10.60521423       0.87458134       7.76897664        1      -0.00004265       0.00007498      -0.00016736
C        7.57514322       2.62408683       9.99966388        2      -0.00019007       0.00017731       0.00148437
Ti       7.57508887       4.37388194       8.68840347        0       0.00001203      -0.00014592      -0.00461037
Ti       9.08979394       3.49889004      11.31139267        0      -0.00018434       0.00011576       0.00265720
O        7.57494930       4.37293157      12.23008024        3      -0.00018260       0.00002301       0.02566028
O        9.09010344       3.49920644       7.76914423        1       0.00002049       0.00005512      -0.00003099
C        6.05987132       5.24764083      10.00016241        2      -0.00004249       0.00018213       0.00190432
Ti       6.06117715       6.99815605       8.69039241        0      -0.00069298      -0.00027483      -0.00453265
Ti       7.57316861       6.12217452      11.31075032        0       0.00013135       0.00001957       0.00429599
O        6.05812194       6.99672991      12.23008024        3       0.00020230       0.00016154       0.02317724
O        7.57582825       6.12365649       7.77019954        1      -0.00002346       0.00015468       0.00093276
C        4.54455915       7.87244908      10.00008082        2       0.00005461      -0.00000976       0.00189738
Ti       4.54523184       9.62130172       8.68799016        0      -0.00015624       0.00024424      -0.00471373
Ti       6.05924176       8.74577283      11.31042889        0       0.00014759       0.00016004       0.00410675
O        4.54490685       9.62181795      12.23008024        3      -0.00005016       0.00007889       0.02322037
O        6.06099818       8.74700616       7.76998531        1       0.00003807       0.00004628       0.00077976
C        0.04102237       0.07010205      18.31560003       10      -0.00112099      -0.00057862       0.01234435
C        1.25000691       0.77045678      18.30030798       10      -0.00199889      -0.00109233       0.00602077
C       -1.16908954       2.16789778      18.32092073       10       0.00269641      -0.00307419       0.00340613
C        0.04253494       2.86737208      18.30321030       10       0.00154711      -0.00345972       0.00090704
C       -2.38046225       4.26459889      18.31560003       10       0.00028152      -0.00368463       0.01255602
C       -1.16939940       4.96125894      18.30030798       10      -0.00018309      -0.00267415       0.00623841
C       -3.58554357       6.36741549      18.25248928       10      -0.00217748      -0.00204381       0.03180992
C       -2.38024839       7.04886863      18.21066706       10      -0.00285896      -0.00051505      -0.00776637
C       -4.80055942       8.47100538      18.25248928       10       0.00351653       0.00018077       0.02894901
C       -3.60754593       9.17388111      18.21066706       10       0.00308982       0.00002783      -0.00952504
C        2.46497030       0.06223686      18.25248928       10      -0.00219151       0.00071308       0.02919745
C        3.67952771       0.76701926      18.22041060       10      -0.00323001       0.00039355      -0.04979922
C        1.25490214       2.16855259      18.28926501       10       0.00118177      -0.00208367       0.00183284
C        2.46634122       2.86629826      18.26735060       10       0.00070156      -0.00157683      -0.00444868
C        0.04382250       4.26664133      18.28926501       10       0.00024209      -0.00339559       0.00186918
C        1.25399602       4.96654635      18.26735060       10      -0.00127906      -0.00048237      -0.00443289
C       -1.17492120       6.36729700      18.25248928       10      -0.00310223      -0.00065672       0.03174950
C        0.04269966       7.06655342      18.22041060       10      -0.00311065       0.00123569      -0.04959873
C       -2.38062372       8.46536117      17.75786140       10       0.00052650       0.00038516      -0.45925362
C       -1.15382478       9.17377030      18.21066706       10      -0.00011621      -0.00017580      -0.01021604
C        4.89402086       0.06210854      18.25248928       10      -0.00270777       0.00157365       0.02930508
C        6.10883978       0.77027522      18.30030798       10      -0.00057290      -0.00039986       0.00596405
C        3.67940265       2.16367970      18.25274431       10       0.00050241      -0.00052321      -0.00529478
C        4.89248996       2.86622294      18.26735060       10       0.00171906      -0.00100179      -0.00437366
C        2.46778652       4.26714800      18.26466899       10      -0.00145142      -0.00125486      -0.00588173
C        3.67979255       4.96680834      18.25966822       10      -0.00204226       0.00004795      -0.01206277
C        1.25225049       6.36825329      18.25274431       10      -0.00297061       0.00161000      -0.00513581
C        2.46706698       7.06757205      18.26735060       10      -0.00105515       0.00128209      -0.00446181
C        0.03910033       8.47069921      18.25248928       10       0.00145066       0.00207289       0.02988887
C        1.25955895       9.16889507      18.30030798       10       0.00481392       0.00055200       0.00638688
C        7.31757132       0.06977004      18.31560003       10       0.00194878       0.00223763       0.01252118
C        8.52957494       0.76955230      18.32253855       10       0.00130478       0.00205796       0.00414910
C        6.10372130       2.16833879      18.28926501       10       0.00280663      -0.00050262       0.00196071
C        7.31610815       2.86709216      18.30321030       10       0.00227660      -0.00004765       0.00093109
C        4.89168525       4.26707624      18.26466899       10      -0.00189427       0.00028360      -0.00593790
C        6.10552734       4.96646250      18.26735060       10      -0.00293957       0.00201359      -0.00442286
C        3.67979498       6.36620668      18.26466899       10      -0.00240821       0.00044220      -0.00590048
C        4.89235138       7.06766125      18.26735060       10      -0.00214126       0.00083285      -0.00445709
C        2.46779731       8.46552945      18.28926501       10       0.00529910       0.00134185       0.00193608
C        3.67906355       9.16612689      18.30321030       10       0.00505504       0.00077075       0.00091614
C        9.73926618       0.06887003      18.32092073       10       0.00053904       0.00156785       0.00344491
C       10.94894562       0.76982862      18.32253855       10       0.00003305      -0.00085417       0.00411156
C        8.52752693       2.16760175      18.32092073       10       0.00262962       0.00059240       0.00347574
C        9.73921547       2.86505980      18.32253855       10       0.00219100      -0.00190851       0.00404777
C        7.31548261       4.26640755      18.28926501       10      -0.00290253       0.00027218       0.00193728
C        8.52866101       4.96126600      18.30030798       10      -0.00192125      -0.00155732       0.00571428
C        6.10736380       6.36831169      18.25274431       10      -0.00277999       0.00210633      -0.00520515
C        7.31674589       7.06678425      18.22041060       10      -0.00202192       0.00082667      -0.04987399
C        4.89050463       8.46566178      18.28926501       10       0.00362738       0.00062974       0.00187241
C        6.09868459       9.16916460      18.30030798       10       0.00397536      -0.00057393       0.00586849
O       -2.38051927       8.46305021      16.41979759       11      -0.00005311      -0.00014853      -0.00246098
