130
Lattice="12.12 0.0 0.0 -6.06 10.496227893867395 0.0 0.0 0.0 40.0" Properties=species:S:1:pos:R:3:tags:I:1:forces:R:3 energy=-1200.0053914188911 stress="0.0026876926819746944 1.6012039964422544e-07 -3.413401175009666e-07 1.6012039964422544e-07 0.0026874800193906713 -9.508138624197136e-08 -3.413401175009666e-07 -9.508138624197136e-08 0.003005391186862654" pbc="T T F"
C       -0.00000469      -0.00001034      10.00347094        2      -0.00013044       0.00001279       0.00151845
Ti       0.00001022       1.74938006       8.71054828        0      -0.00001156      -0.00008000       0.00273404
Ti       1.51512989       0.87461399      11.29006983        0       0.00019606       0.00013332       0.00201675
O       -0.00007509       1.74913213      12.23008024        3      -0.00027710       0.00088887      -0.27873549
O        1.51475693       0.87459974       7.77036257        1      -0.00062071      -0.00032845       0.00292015
C       -1.51513754       2.62394026      10.00280859        2      -0.00035782       0.00029413       0.00033197
Ti      -1.51493182       4.37341748       8.70953070        0       0.00004369      -0.00023212       0.00031399
Ti      -0.00000877       3.49994204      11.28989642        0      -0.00014591       0.00008794       0.00178253
O       -1.51593696       4.37510740      12.23008024        3      -0.00011252       0.00036471      -0.28709481
O        0.00006850       3.49826493       7.77005165        1      -0.00013401      -0.00130391       0.00137657
C       -3.03018435       5.24802782      10.00128082        2       0.00000258       0.00005548      -0.00103179
Ti      -3.02992125       6.99757303       8.70934235        0      -0.00009191       0.00007639       0.00006273
Ti      -1.51350411       6.12365659      11.28703729        0       0.00012930       0.00015219      -0.00019469
O       -3.02894072       6.99608469      12.23008024        3       0.00026974      -0.00038014      -0.29088769
O       -1.51503357       6.12269249       7.76947076        1      -0.00068049      -0.00034977      -0.00065163
C       -4.54518689       7.87216177      10.00259445        2       0.00002504      -0.00035248       0.00010590
Ti      -4.54498166       9.62153263       8.71047376        0      -0.00016342       0.00012899       0.00264516
Ti      -3.02878505       8.74627717      11.28968108        0      -0.00019395      -0.00017766       0.00163511
O       -4.54510592       9.62145249      12.23008024        3       0.00041054      -0.00051675      -0.27862437
O       -3.03039108       8.74718018       7.76990312        1      -0.00107783       0.00061380       0.00130163
C        3.02989008       0.00010975      10.00295968        2       0.00020686      -0.00000271       0.00049585
Ti       3.02995834       1.74935182       8.71030664        0      -0.00006643       0.00012556       0.00164543
Ti       4.54556343       0.87348322      11.28995656        0       0.00052496       0.00002673       0.00138132
O        3.03177999       1.75052239      12.23008024        3       0.00079560       0.00023584      -0.26798968
O        4.54454282       0.87465467       7.76983763        1      -0.00069567       0.00004282       0.00045993
C        1.51504999       2.62393581      10.00304478        2       0.00027026       0.00027761       0.00067529
Ti       1.51495068       4.37340634       8.70970469        0      -0.00003952      -0.00034030       0.00014261
Ti       3.02962766       3.49968395      11.28990118        0       0.00054137       0.00050932       0.00128050
O        1.51550781       4.37515560      12.23008024        3       0.00015355       0.00053206      -0.28728738
O        3.02967672       3.49840229       7.76988690        1      -0.00032039      -0.00078237       0.00036745
C       -0.00008145       5.24763202      10.00136330        2      -0.00001717       0.00034241      -0.00100892
Ti       0.00001863       6.99751649       8.70869675        0       0.00001340      -0.00012179      -0.00227715
Ti       1.51366609       6.12357876      11.28695037        0      -0.00021954       0.00020396      -0.00071343
O        0.00037439       6.99823877      12.23008024        3       0.00019372      -0.00034458      -0.30901508
O        1.51505243       6.12261341       7.76953671        1       0.00034648      -0.00039260      -0.00087282
C       -1.51545055       7.87229363      10.00107961        2       0.00020868      -0.00016781      -0.00093614
Ti      -1.51504774       9.62152223       8.70951070        0      -0.00023374       0.00009691       0.00022493
Ti       0.00005708       8.74538114      11.28655646        0      -0.00010363      -0.00034793      -0.00050870
O       -1.51327710       9.62076762      12.23008024        3       0.00046162      -0.00024759      -0.29219819
O       -0.00005804       8.74697075       7.76944156        1      -0.00020658       0.00064511      -0.00083627
C        6.05995629       0.00031363      10.00139016        2       0.00003346      -0.00030372      -0.00095267
Ti       6.05999675       1.74904487       8.70877771        0      -0.00005250      -0.00000704      -0.00088230
Ti       7.57443078       0.87340101      11.28971902        0      -0.00053234      -0.00010232       0.00127236
O        6.06060566       1.75038408      12.23008024        3      -0.00034265      -0.00012872      -0.28170646
O        7.57531299       0.87461930       7.76971220        1       0.00064382       0.00019740       0.00013953
C        4.54495267       2.62404515      10.00157886        2       0.00041883       0.00029048      -0.00091776
Ti       4.54475302       4.37358415       8.70866655        0      -0.00008607       0.00001551      -0.00125516
Ti       6.05990846       3.49855178      11.28591156        0       0.00015422      -0.00008512      -0.00161339
O        4.54661217       4.37372376      12.23008024        3      -0.00026027       0.00006286      -0.28076896
O        6.05988935       3.49866848       7.76930618        1       0.00009191      -0.00012823      -0.00144100
C        3.03018322       5.24797078      10.00146420        2       0.00001931       0.00006988      -0.00088080
Ti       3.02990919       6.99757500       8.70940460        0       0.00011217       0.00002935      -0.00042845
Ti       4.54377679       6.12292145      11.28951803        0      -0.00008754      -0.00021812       0.00081251
O        3.02852758       6.99645016      12.23008024        3      -0.00015970      -0.00033032      -0.29538320
O        4.54502447       6.12307901       7.76966659        1       0.00045274       0.00055033      -0.00012064
C        1.51536246       7.87232339      10.00089701        2      -0.00036506      -0.00023862      -0.00126721
Ti       1.51504494       9.62148106       8.70937709        0       0.00012770       0.00007580      -0.00018614
Ti       3.02870216       8.74619065      11.28927486        0      -0.00030275      -0.00012229       0.00118030
O        1.51325386       9.62060707      12.23008024        3      -0.00028818      -0.00016907      -0.29693636
O        3.03039342       8.74709627       7.76986140        1       0.00107749       0.00075068       0.00078792
C        9.09013350       0.00014954      10.00266978        2      -0.00046252       0.00000486       0.00004358
Ti       9.09006715       1.74931457       8.70990670        0      -0.00010233       0.00011594       0.00169363
Ti      10.60445167       0.87455005      11.28980816        0      -0.00053282       0.00010847       0.00239568
O        9.08794388       1.75071930      12.23008024        3      -0.00081498       0.00027369      -0.27016183
O       10.60536668       0.87456802       7.77023080        1       0.00053342      -0.00022265       0.00264899
C        7.57500006       2.62406964      10.00121677        2      -0.00046267       0.00025064      -0.00103314
Ti       7.57515461       4.37353911       8.70833795        0      -0.00001055       0.00001593      -0.00123312
Ti       9.09015085       3.49961099      11.28947000        0      -0.00054102       0.00024319       0.00129019
O        7.57351475       4.37315551      12.23008024        3      -0.00007844       0.00020218      -0.28013706
O        9.09031692       3.49845887       7.76965790        1       0.00021697      -0.00065001       0.00019465
C        6.05999232       5.24813073      10.00100915        2      -0.00003804      -0.00036451      -0.00119796
Ti       6.05997061       6.99759273       8.70969474        0      -0.00008708      -0.00006547       0.00114345
Ti       7.57600498       6.12285610      11.28914402        0       0.00001623      -0.00043531       0.00084214
O        6.06007648       6.99490202      12.23008024        3       0.00008137      -0.00058201      -0.27225833
O        7.57492166       6.12315611       7.76955668        1      -0.00032002       0.00052819      -0.00002345
C        4.54519281       7.87221412      10.00256253        2      -0.00023210      -0.00043686       0.00003554
Ti       4.54498629       9.62152480       8.71034138        0       0.00009629       0.00014296       0.00248679
Ti       6.05971047       8.74648497      11.28977408        0      -0.00017337      -0.00042301       0.00212441
O        4.54480232       9.62140916      12.23008024        3      -0.00104710      -0.00054824      -0.27914105
O        6.06003819       8.74728609       7.77015584        1       0.00003942       0.00075406       0.00254831
C        0.04498673       0.06754125      15.27623409       10       0.00780328       0.00500170       0.12053247
C        1.25698656       0.76729605      15.27623409       10      -0.00599029       0.00071662       0.05409703
C       -1.16686128       2.16685507      15.27623409       10      -0.00362080       0.00591017       0.10093299
C        0.04504999       2.86633548      15.27623409       10       0.00009994       0.00242929       0.07487308
C       -2.37894676       4.26624702      15.27623409       10      -0.00442977       0.00227526       0.09697435
C       -1.16731920       4.96561403      15.27623409       10       0.00090539       0.00056231       0.12088311
C       -3.59085057       6.36522873      15.27623409       10      -0.00422296       0.00407003       0.09766614
C       -2.37947024       7.06501596      15.27623409       10       0.00293615      -0.00293845       0.12284831
C       -4.80294847       8.46445974      15.27623409       10       0.00663111       0.00326836       0.09885479
C       -3.59118979       9.16441323      15.27623409       10      -0.00457556      -0.00022223       0.08062369
C        2.46908897       0.06754041      15.27623409       10       0.00020191      -0.00406554       0.09685827
C        3.68096051       0.76756324      15.27623409       10       0.00504942       0.00467393       0.07238765
C        1.25703440       2.16690364      15.27623409       10       0.00123108      -0.00052003       0.09897414
C        2.46934415       2.86638563      15.27623409       10       0.00186635       0.00008575       0.06808297
C        0.04501220       4.26646962      15.27623409       10       0.00262225      -0.00081873       0.06281585
C        1.25726138       4.96564797      15.27623409       10      -0.00032304      -0.00235400       0.12474718
C       -1.16701369       6.36547248      15.27623409       10       0.00491895       0.00202703       0.04142433
C        0.04484313       7.06505341      15.27623409       10       0.00065872      -0.00237277       0.13309035
C       -2.37869412       8.46449618      15.27623409       10       0.00176961      -0.00113506       0.05790859
C       -1.16705065       9.16454671      15.27623409       10       0.00171926       0.00593131       0.12829264
C        4.89327334       0.06751839      15.27623409       10      -0.00129536      -0.00631493       0.08293896
C        6.10510150       0.76782770      15.27623409       10       0.00154798       0.00317738       0.10870659
C        3.68139360       2.16688871      15.27623409       10      -0.00272915       0.00029385       0.11972178
C        4.89351603       2.86676147      15.27623409       10      -0.00033146      -0.00065180       0.07611693
C        2.46908651       4.26630006      15.27623409       10      -0.00097823       0.00049019       0.08919521
C        3.68155749       4.96552526      15.27623409       10       0.00114310      -0.00044292       0.10188784
C        1.25673624       6.36551291      15.27623409       10       0.00052307       0.00078795       0.03679336
C        2.46922844       7.06494526      15.27623409       10       0.00283185      -0.00044044       0.12718188
C        0.04504532       8.46434154      15.27623409       10      -0.00140732      -0.00304207       0.03434611
C        1.25706660       9.16448091      15.27623409       10       0.00141864       0.00631727       0.12830609
C        7.31693587       0.06744006      15.27623409       10      -0.00167040      -0.00597154       0.08321081
C        8.52914733       0.76755247      15.27623409       10      -0.00152500       0.00118808       0.07746897
C        6.10525153       2.16681818      15.27623409       10      -0.00047898       0.00234746       0.12331870
C        7.31696627       2.86683356      15.27623409       10      -0.00467952      -0.00202037       0.07824073
C        4.89319030       4.26601996      15.27623409       10       0.00042944       0.00238750       0.12280862
C        6.10517101       4.96540227      15.27623409       10      -0.00242275       0.00097353       0.08235960
C        3.68082582       6.36523822      15.27623409       10      -0.00177011       0.00012530       0.08971328
C        4.89331692       7.06483828      15.27623409       10      -0.00092041       0.00063498       0.07670606
C        2.46875308       8.46441502      15.27623409       10      -0.00487184      -0.00457449       0.05121913
C        3.68127966       9.16431507      15.27623409       10       0.00018922       0.00418025       0.08861055
C        9.74093553       0.06740574      15.27623409       10       0.00429277       0.00016143       0.09521950
C       10.95321349       0.76736072      15.27623409       10      -0.00632327      -0.00306486       0.05133767
C        8.52892034       2.16676582      15.27623409       10      -0.00275752       0.00301652       0.11935420
C        9.74074309       2.86644264      15.27623409       10       0.00471042      -0.00407432       0.06766922
C        7.31704321       4.26603965      15.27623409       10      -0.00057825      -0.00058226       0.12500090
C        8.52851961       4.96559288      15.27623409       10       0.00467569      -0.00216580       0.09615779
C        6.10493542       6.36503236      15.27623409       10       0.00004812      -0.00238194       0.11949470
C        7.31660350       7.06489954      15.27623409       10       0.00378426      -0.00572665       0.07145436
C        4.89285727       8.46445859      15.27623409       10       0.00585145      -0.00076388       0.09572681
C        6.10513268       9.16440029      15.27623409       10      -0.00758582      -0.00488710       0.05059811
