131
Lattice="12.12 0.0 0.0 -6.06 10.496227893867395 0.0 0.0 0.0 40.0" Properties=species:S:1:pos:R:3:tags:I:1:forces:R:3 stress="0.002823577531573362 5.695566890441044e-07 -1.8289071798202801e-06 5.695566890441044e-07 0.0028208743324319393 -4.554370804524865e-06 -1.8289071798202801e-06 -4.554370804524865e-06 0.0029235515533971553" energy=-1204.6009658771757 pbc="T T F"
C        0.23413311      -0.07644167       9.94611015        2      -0.00133964       0.00055962      -0.00227960
Ti       0.25794203       1.65598621       8.67270820        0      -0.00107249       0.00048842       0.00116314
Ti       1.77280366       0.81620660      11.27323628        0      -0.00166678       0.00238570      -0.00130048
O        0.23360842       1.67221807      12.23008024        3      -0.00018279      -0.00204327      -0.21787218
O        1.78955041       0.76657499       7.78626150        1      -0.00082909      -0.00001777      -0.00272347
C       -1.25755048       2.53092693       9.94605509        2       0.00029222       0.00004574       0.00064873
Ti      -1.25836318       4.28120331       8.67229783        0      -0.00143634       0.00023193       0.00147605
Ti       0.25393750       3.40335616      11.29040289        0      -0.00020418      -0.00091324       0.00061046
O       -1.25638845       4.25120841      12.23008024        3      -0.00017389      -0.00214007      -0.21739937
O        0.26185040       3.40837852       7.75241685        1      -0.00193118      -0.00078552      -0.00015206
C       -2.77064934       5.12538855       9.94371116        2      -0.00020737      -0.00367519      -0.00063956
Ti      -2.77052090       6.89429503       8.74674615        0      -0.00157549      -0.00028095       0.00328776
Ti      -1.22737261       6.01138070      11.27426341        0       0.00197773      -0.00255486      -0.00390122
O       -2.77005356       6.69293957      12.23008024        3      -0.00013956       0.00056926      -0.38033826
O       -1.26285384       6.05247929       7.78615950        1       0.00141197       0.00104496      -0.00280580
C       -4.26762660       7.78988334      10.05296916        2      -0.00283356      -0.00158343       0.00054465
Ti      -4.29492056       9.53632602       8.74565786        0       0.00041306      -0.00106578       0.00269070
Ti      -2.77356266       8.64849097      11.79387127        0       0.00027830      -0.00183241      -0.00027174
O       -4.46032118       9.63283434      12.23008024        3       0.00253143      -0.00197656      -0.35794663
O       -2.77050257       8.65522319       7.86669963        1      -0.00129923      -0.00072642      -0.00149309
C        3.28922743      -0.10940590      10.04895347        2      -0.00109497       0.00246928       0.00079939
Ti       3.28982541       1.65884630       8.70911527        0      -0.00220323      -0.00049398       0.00155716
Ti       4.80503862       0.81487488      11.27338614        0       0.00101328      -0.00298473       0.00096873
O        3.28931767       1.67939707      12.23008024        3      -0.00006221       0.00147873      -0.13005256
O        4.79024546       0.76697239       7.78644097        1      -0.00222044      -0.00113355      -0.00355518
C        1.76888587       2.54322768       9.96363740        2      -0.00053378      -0.00062404      -0.00012247
Ti       1.77296463       4.28248250       8.67806957        0       0.00114655      -0.00142134       0.00176265
Ti       3.28965161       3.41450720      11.29506474        0      -0.00324745       0.00225044      -0.00016376
O        1.77199224       4.28074536      12.23008024        3      -0.00145268      -0.00011114      -0.17423380
O        3.28925693       3.38959885       7.76778794        1      -0.00033278       0.00145785      -0.00179166
C        0.26535220       5.14663141       9.96340336        2       0.00076860      -0.00108386       0.00112582
Ti       0.25827684       6.90688071       8.70929191        0       0.00496623      -0.00397365       0.00409038
Ti       1.78035856       6.02876673      11.29359000        0       0.00252847      -0.00172222       0.00007654
O        0.27756949       6.89523330      12.23008024        3       0.00143288      -0.00121365      -0.12955969
O        1.75788255       6.04168263       7.76758680        1       0.00324998      -0.00247288       0.00053873
C       -1.27199235       7.78879118      10.05045049        2      -0.00157467      -0.00092072       0.00249196
Ti      -1.24581844       9.53650173       8.74455862        0      -0.00126925       0.00065095       0.00318836
Ti       0.28613782       8.64136197      11.27583550        0       0.00053617      -0.00107889      -0.00361961
O       -1.08658868       9.62889026      12.23008024        3      -0.00050243       0.00008153      -0.34836570
O        0.23776511       8.65183324       7.78699270        1      -0.00109094      -0.00283653      -0.00301747
C        6.34397076      -0.07687096       9.94719256        2       0.00152078       0.00172464       0.00145149
Ti       6.32189795       1.65662904       8.67347903        0      -0.00260288      -0.00013097       0.00063720
Ti       7.83631892       0.78548605      11.29265350        0       0.00013926      -0.00222048      -0.00078775
O        6.34461378       1.67168905      12.23008024        3      -0.00184185      -0.00144748      -0.21682622
O        7.83113865       0.78124247       7.74979537        1       0.00091913       0.00025605      -0.00344545
C        4.80955500       2.54311117       9.96354937        2       0.00124352      -0.00024993       0.00351069
Ti       4.80496250       4.28189602       8.67846229        0       0.00193009      -0.00120688       0.00210287
Ti       6.32439830       3.40318736      11.29141537        0       0.00232531      -0.00056240      -0.00121976
O        4.80691436       4.28089085      12.23008024        3       0.00111650      -0.00216707      -0.17309002
O        6.31699319       3.40857101       7.75279334        1       0.00131613      -0.00103450       0.00158063
C        3.28902370       5.15740337       9.95748541        2       0.00041591      -0.00101803       0.00230730
Ti       3.28838973       6.90753031       8.67955786        0       0.00133937      -0.00065011       0.00220041
Ti       4.79862279       6.02874497      11.29276506        0      -0.00203724       0.00100776       0.00016578
O        3.28944768       6.90979860      12.23008024        3      -0.00136737       0.00020277      -0.17444370
O        4.81977817       6.04125415       7.76779771        1      -0.00098631      -0.00095150      -0.00173475
C        1.78533931       7.78105710       9.96449604        2       0.00001580      -0.00103703       0.00050137
Ti       1.77401837       9.53285246       8.67450945        0      -0.00155747      -0.00155070       0.00151822
Ti       3.28904968       8.66272035      11.29271745        0      -0.00024527      -0.00029396       0.00040650
O        1.79859533       9.54596755      12.23008024        3       0.00040267      -0.00015975      -0.21485812
O        3.28954520       8.65350529       7.75407983        1      -0.00084911       0.00125126      -0.00037971
C        9.34936570      -0.08847289       9.94651190        2      -0.00107410      -0.00187798       0.00040363
Ti       9.34997592       1.65729629       8.68682006        0      -0.00131542       0.00018062      -0.00150371
Ti      10.86147118       0.78589711      11.29240583        0       0.00292494      -0.00245141       0.00008902
O        9.34929850       1.65788642      12.23008024        3      -0.00160021      -0.00088045      -0.22307397
O       10.86801502       0.78102036       7.74897040        1      -0.00186777       0.00061552      -0.00043110
C        7.83610201       2.53105220       9.94620089        2      -0.00064591      -0.00074597       0.00087656
Ti       7.83771160       4.28131923       8.67255036        0      -0.00183456       0.00106728       0.00125604
Ti       9.34935001       3.40303814      11.29207898        0       0.00004270       0.00005215      -0.00042420
O        7.83497268       4.25074076      12.23008024        3       0.00008823       0.00031147      -0.21832085
O        9.34944057       3.41041112       7.74855202        1      -0.00040291      -0.00278954      -0.00336775
C        6.31314892       5.14720853       9.96348302        2       0.00001907      -0.00311061       0.00267116
Ti       6.31854433       6.90531241       8.70906274        0       0.00146630       0.00186282       0.00324064
Ti       7.80651302       6.01203531      11.27440144        0      -0.00101145      -0.00371866       0.00059908
O        6.30097883       6.89522110      12.23008024        3      -0.00230383      -0.00135125      -0.13203406
O        7.84119331       6.05273263       7.78685040        1      -0.00077547       0.00127419      -0.00320104
C        4.79344036       7.78087145       9.96459026        2      -0.00036137      -0.00009866      -0.00027555
Ti       4.80601702       9.53251330       8.67415240        0      -0.00086966      -0.00090930       0.00090491
Ti       6.29163952       8.64147775      11.27573451        0      -0.00408989      -0.00116660      -0.00094771
O        4.77886865       9.54628383      12.23008024        3       0.00167292       0.00002694      -0.21577508
O        6.34175175       8.65069789       7.78749663        1      -0.00022352      -0.00040209      -0.00239408
C       -0.36159392       0.21095871      15.60790772       10      -0.00655457      -0.00025004       0.05134091
C        0.84544072       0.91316393      15.59261567       10       0.00069672       0.00212834       0.02121186
C       -1.57499732       2.31143946      15.61322842       10      -0.00091865       0.00264673       0.05721214
C       -0.36324611       3.01115003      15.59551799       10       0.00134295       0.00034516       0.04417951
C       -2.78741350       4.41238510      15.60790772       10      -0.00048571       0.00196965       0.05049002
C       -1.57590599       5.10694230      15.59261567       10       0.00188354       0.00064652       0.02310583
C       -3.99387742       6.51339233      15.54479697       10      -0.00091207       0.00185632       0.15881747
C       -2.78743093       7.19084842      15.50297475       10       0.00131304       0.00097715      -0.31772992
C       -5.20575921       8.61195812      15.54479697       10      -0.00383246       0.00161824       0.16303169
C       -4.01695213       9.31866455      15.50297475       10       0.00594047       0.00381933      -0.27889982
C        2.06076807       0.20589953      15.54479697       10      -0.00155158      -0.00080667       0.16524707
C        3.27280255       0.91356678      15.51271829       10      -0.00247150       0.00115051       0.02595493
C        0.84891901       2.31190206      15.58157270       10       0.00031107       0.00041647       0.07526315
C        2.06021696       3.01060348      15.55965829       10       0.00011044       0.00202196       0.11188604
C       -0.36271878       4.41051127      15.58157270       10       0.00061131       0.00003158       0.07723621
C        0.84827464       5.10966452      15.55965829       10      -0.00004138       0.00139973       0.10855266
C       -1.58083082       6.51339817      15.54479697       10       0.00017238      -0.00027696       0.15942283
C       -0.36167073       7.20843520      15.51271829       10      -0.00003528       0.00111941       0.02405531
C       -2.78694705       8.61056868      15.05016909       10       0.00114706       0.00078305       1.24790225
C       -1.55737676       9.31903977      15.50297475       10       0.00037380       0.00174270      -0.26366181
C        4.48494137       0.20600756      15.54479697       10      -0.00078985      -0.00021415       0.16649430
C        5.70015606       0.91333452      15.59261567       10      -0.00070153       0.00083530       0.01772674
C        3.27258150       2.30806846      15.54505200       10       0.00024359       0.00144469       0.03849004
C        4.48485533       3.01072554      15.55965829       10       0.00054407       0.00129815       0.11129448
C        2.06138031       4.41061643      15.55697668       10       0.00017703       0.00201327       0.06049753
C        3.27247188       5.10983152      15.55197591       10       0.00055144       0.00067999       0.12503949
C        0.84591708       6.51087642      15.54505200       10       0.00001331       0.00093781       0.03522028
C        2.06067752       7.20928270      15.55965829       10       0.00008340       0.00093491       0.10620288
C       -0.36873259       8.61210507      15.54479697       10       0.00135409       0.00066615       0.16476241
C        0.85168637       9.31075135      15.59261567       10       0.00119839       0.00127988       0.01431040
C        6.90727093       0.21108286      15.60790772       10       0.00033626      -0.00007594       0.05244160
C        8.12256016       0.91268839      15.61484624       10      -0.00067737       0.00217451       0.00655744
C        5.69625335       2.31200857      15.58157270       10       0.00076947       0.00089929       0.07331705
C        6.90842658       3.01119630      15.59551799       10       0.00139781       0.00143480       0.04160565
C        4.48360025       4.41073566      15.55697668       10       0.00067326       0.00065102       0.05837025
C        5.69672120       5.10974666      15.55965829       10       0.00099547       0.00043199       0.10671445
C        3.27254591       6.50819376      15.55697668       10       0.00005418       0.00054833       0.05413301
C        4.48445231       7.20925683      15.55965829       10      -0.00025466       0.00166167       0.10488985
C        2.06097097       8.60782365      15.58157270       10       0.00255456       0.00121756       0.07126558
C        3.27264584       9.30809091      15.59551799       10       0.00108871       0.00400037       0.03706093
C        9.33288458       0.21146109      15.61322842       10      -0.00396503      -0.00052045       0.05495558
C       10.54303521       0.91265027      15.61484624       10       0.00322024       0.00164508       0.00673329
C        8.12035022       2.31152621      15.61322842       10       0.00046788       0.00063549       0.05643951
C        9.33262215       3.00912082      15.61484624       10       0.00217643      -0.00004916       0.00560794
C        6.90776746       4.41058660      15.58157270       10       0.00049473       0.00015631       0.07604198
C        8.12098532       5.10693044      15.59261567       10       0.00238240      -0.00062060       0.02138327
C        5.69925498       6.51094119      15.54505200       10      -0.00056295       0.00095804       0.03367989
C        6.90689903       7.20839732      15.51271829       10       0.00080249       0.00037261       0.02331403
C        4.48425486       8.60778177      15.58157270       10      -0.00064570       0.00075568       0.07200139
C        5.69359848       9.31060617      15.59261567       10       0.00498830       0.00383576       0.01586518
O       -2.78159675       8.62931542      13.65718708       11       0.00282452      -0.00102547       0.00166045
