131
Lattice="12.12 0.0 0.0 -6.06 10.496227893867395 0.0 0.0 0.0 40.0" Properties=species:S:1:pos:R:3:tags:I:1:forces:R:3 stress="0.0025670316466904486 4.187580761407602e-07 -4.247198805821911e-07 4.187580761407602e-07 0.0025667311315012795 -1.5857522477993202e-06 -4.247198805821911e-07 -1.5857522477993202e-06 0.0029830196311339805" energy=-1202.3980986395113 pbc="T T F"
C        0.23563489      -0.09339877       9.96968468        2      -0.00246596       0.00119369      -0.00120212
Ti       0.25336585       1.64234718       8.69574522        0       0.00075064      -0.00073852      -0.00011348
Ti       1.76182634       0.78208788      11.28546896        0       0.00151393       0.00312642       0.00370466
O        0.22858277       1.67309164      12.23008024        3      -0.00171379      -0.00036300      -0.45795193
O        1.78305176       0.75832575       7.77648929        1      -0.00171857      -0.00003760      -0.00061384
C       -1.26330084       2.51784089       9.98289688        2       0.00090801      -0.00177494      -0.00148464
Ti      -1.26317909       4.26883131       8.69560635        0      -0.00141499       0.00140180      -0.00213176
Ti       0.25434821       3.39388675      11.28000592        0      -0.00033729       0.00044877       0.00243358
O       -1.24886294       4.23165391      12.23008024        3      -0.00006637       0.00132103      -0.46026384
O        0.25401337       3.39387037       7.75182281        1       0.00160356      -0.00108237      -0.00266377
C       -2.77534147       5.12119833       9.96923419        2       0.00067430      -0.00128434       0.00135552
Ti      -2.77527352       6.89191496       8.73434907        0       0.00118378      -0.00093563       0.00138043
Ti      -1.25333488       6.00496875      11.28557530        0       0.00131073      -0.00067884      -0.00206837
O       -2.77458740       6.58710418      12.23008024        3      -0.00063355      -0.00123936      -0.48666267
O       -1.26423175       6.03534389       7.77575309        1       0.00178402       0.00186177       0.00334382
C       -4.27864412       7.77421444      10.05857103        2      -0.00058159      -0.00247402       0.00186472
Ti      -4.29060170       9.51739806       8.73491028        0      -0.00281257       0.00197965      -0.00021702
Ti      -2.77441512       8.64184209      11.36885418        0      -0.00520791       0.00239163       0.00158106
O       -4.55332460       9.66960694      12.23008024        3       0.00502772      -0.00405794      -0.47806038
O       -2.77500819       8.64240548       7.79729915        1      -0.00035695       0.00008517       0.00233160
C        3.28481016      -0.11753623      10.05842251        2       0.00146183       0.00082365       0.00147307
Ti       3.28475192       1.65124011       8.71053197        0       0.00254009       0.00174136       0.00018988
Ti       4.80788559       0.78175313      11.28609798        0      -0.00287510       0.00515232       0.00039379
O        3.28467437       1.66663898      12.23008024        3       0.00189856      -0.00191093      -0.42247721
O        4.78687301       0.75843610       7.77615806        1       0.00028141       0.00085855       0.00325405
C        1.76732957       2.53100714       9.98574522        2      -0.00191666       0.00108310      -0.00623149
Ti       1.76639033       4.26735553       8.69318019        0       0.00173070      -0.00004661      -0.00208755
Ti       3.28451638       3.40153463      11.26988296        0       0.00233997      -0.00278093       0.00113090
O        1.77464689       4.27190883      12.23008024        3       0.00025913       0.00161401      -0.46629440
O        3.28433058       3.38526294       7.75751945        1       0.00277614      -0.00231730       0.00163619
C        0.26333237       5.13571573       9.98516072        2       0.00095653      -0.00004861       0.00157972
Ti       0.25982840       6.89021835       8.71020539        0       0.00134389      -0.00150231       0.00048357
Ti       1.77609662       6.01481666      11.26966043        0      -0.00153550       0.00050821      -0.00021639
O        0.27340863       6.88232540      12.23008024        3       0.00036947      -0.00160179      -0.42347436
O        1.76164163       6.02293408       7.75729794        1       0.00014767       0.00110398       0.00183140
C       -1.27103012       7.77386909      10.05813245        2      -0.00334826       0.00028954       0.00345966
Ti      -1.25916808       9.51787108       8.73442212        0       0.00020365      -0.00067171       0.00168047
Ti       0.26925691       8.64345314      11.28596907        0       0.00026862      -0.00321177      -0.00243345
O       -1.00066313       9.66656792      12.23008024        3      -0.00147042       0.00362385      -0.48088313
O        0.23814458       8.63758108       7.77573692        1      -0.00099041      -0.00275584       0.00424757
C        6.33404547      -0.09329100       9.97006280        2      -0.00080569      -0.00006311      -0.00016191
Ti       6.31661883       1.64283375       8.69565108        0      -0.00354604      -0.00243845      -0.00027715
Ti       7.83714484       0.77440863      11.27051214        0      -0.00172813       0.00198614       0.00094370
O        6.34051053       1.67236854      12.23008024        3       0.00041593       0.00216843      -0.45822417
O        7.83153220       0.77121075       7.74589009        1       0.00090714       0.00199405       0.00051924
C        4.80231675       2.53125639       9.98558460        2      -0.00087679      -0.00415868      -0.00142955
Ti       4.80249530       4.26734650       8.69326537        0       0.00163694      -0.00134190      -0.00199248
Ti       6.31477647       3.39438519      11.28040837        0       0.00192021      -0.00289122       0.00122318
O        4.79471160       4.27201097      12.23008024        3       0.00027511      -0.00000894      -0.46484443
O        6.31533592       3.39395875       7.75140310        1      -0.00114997      -0.00002236       0.00138216
C        3.28462980       5.14376816       9.98463762        2      -0.00066194       0.00091156       0.00142296
Ti       3.28435283       6.89670331       8.69305386        0       0.00183598      -0.00150073      -0.00051330
Ti       4.79353191       6.01522028      11.26976095        0       0.00383291      -0.00102567       0.00147620
O        3.28474928       6.88759070      12.23008024        3      -0.00116157      -0.00140392      -0.46596747
O        4.80730465       6.02308684       7.75737605        1       0.00322693       0.00005151       0.00208412
C        1.78069088       7.76439404       9.98525778        2       0.00144862      -0.00077192       0.00123862
Ti       1.76866133       9.51974162       8.69540746        0      -0.00312730       0.00065057       0.00067877
Ti       3.28482509       8.64288104      11.27993098        0       0.00113158       0.00002707       0.00300094
O        1.80682664       9.52579536      12.23008024        3      -0.00126649      -0.00104737      -0.45868775
O        3.28477932       8.64324862       7.75152866        1       0.00089102      -0.00058593      -0.00068337
C        9.34476281      -0.10092527       9.98281530        2       0.00131063      -0.00078608      -0.00038087
Ti       9.34521278       1.64483632       8.68603560        0      -0.00321187       0.00101971       0.00216746
Ti      10.85229471       0.77452800      11.27150388        0       0.00096563      -0.00135797      -0.00235946
O        9.34465075       1.64474730      12.23008024        3       0.00073666      -0.00009518      -0.44185584
O       10.85839421       0.77109086       7.74584126        1      -0.00246866       0.00120770       0.00026425
C        7.83270033       2.51792961       9.98298386        2       0.00021823      -0.00115450      -0.00355067
Ti       7.83263031       4.26866836       8.69547973        0       0.00030512       0.00279099      -0.00081011
Ti       9.34467107       3.38579259      11.27068854        0      -0.00044406      -0.00091944       0.00072682
O        7.81855110       4.23219153      12.23008024        3      -0.00121827      -0.00308734      -0.46021861
O        9.34486936       3.39238495       7.74580991        1      -0.00149973      -0.00369429      -0.00042774
C        6.30592567       5.13552430       9.98542775        2       0.00207236       0.00234391      -0.00161086
Ti       6.30916567       6.88984228       8.71020245        0      -0.00006337      -0.00221603       0.00133865
Ti       7.82370270       6.00524692      11.28541968        0      -0.00592006      -0.00056809       0.00011540
O        6.29614454       6.88241841      12.23008024        3       0.00316093      -0.00087795      -0.42653534
O        7.83349068       6.03570439       7.77596691        1      -0.00087019      -0.00136220       0.00284475
C        4.78873483       7.76420609       9.98562860        2      -0.00224439       0.00178206      -0.00432479
Ti       4.80134166       9.51963417       8.69564105        0       0.00122250      -0.00029073       0.00091250
Ti       6.30069289       8.64344263      11.28530811        0      -0.00194614      -0.00105869       0.00430941
O        4.76234737       9.52580427      12.23008024        3      -0.00070848       0.00104909      -0.46001964
O        6.33182707       8.63689873       7.77643161        1      -0.00107133       0.00105761      -0.00057889
C       -0.35770891       0.23328311      15.11560003       10      -0.00106119      -0.00281381       0.14362091
C        0.85259503       0.93331679      15.10030798       10       0.00030360       0.00062265       0.13281426
C       -1.56819791       2.33186891      15.12092073       10       0.00089948      -0.00257573       0.11019090
C       -0.35607880       3.03161923      15.10321030       10       0.00080816       0.00005780       0.09292216
C       -2.78018197       4.42936571      15.11560003       10      -0.00136483       0.00121396       0.14277835
C       -1.56874609       5.12751555      15.10030798       10      -0.00063107       0.00149761       0.13560647
C       -3.98654681       6.53416995      15.05248928       10      -0.00290641       0.00104717       0.14085879
C       -2.77995086       7.21449967      15.01066706       10      -0.00283232       0.00102341      -0.24775819
C       -5.19831742       8.63215004      15.05248928       10      -0.00038446      -0.00006883       0.14079437
C       -4.00616186       9.33720861      15.01066706       10       0.00129935      -0.00015033      -0.22115406
C        2.06835319       0.22594873      15.05248928       10      -0.00095599      -0.00052519       0.14577372
C        3.27987325       0.93204626      15.02041060       10      -0.00097850       0.00071936       0.43234765
C        0.85589367       2.33044545      15.08926501       10       0.00198612      -0.00185478       0.15645754
C        2.06776105       3.03028046      15.06735060       10      -0.00082529       0.00202153       0.08823403
C       -0.35713837       4.43180644      15.08926501       10      -0.00180090       0.00073727       0.15415994
C        0.85506204       5.13105300      15.06735060       10      -0.00246644       0.00081444       0.09049727
C       -1.57341263       6.53409825      15.05248928       10      -0.00348151       0.00218321       0.14248009
C       -0.35601045       7.22986144      15.02041060       10      -0.00068090       0.00144111       0.43428625
C       -2.78006055       8.63008926      14.55786140       10      -0.00050626       0.00064345       1.25890829
C       -1.55413124       9.33722629      15.01066706       10       0.00087047       0.00011980      -0.21677636
C        4.49142646       0.22592608      15.05248928       10      -0.00308662       0.00165949       0.14530745
C        5.70706716       0.93340108      15.10030798       10      -0.00098499      -0.00127538       0.13151316
C        3.27970921       2.32766625      15.05274431       10       0.00080540       0.00191741       0.11185538
C        4.49160987       3.03038379      15.06735060       10       0.00156970       0.00071773       0.08794706
C        2.06713908       4.43036645      15.06466899       10       0.00102627       0.00156277       0.21615709
C        3.27970260       5.13055088      15.05966822       10       0.00053531       0.00031675       0.05913136
C        0.85254067       6.53195482      15.05274431       10       0.00138722       0.00016336       0.10925527
C        2.06695434       7.23030032      15.06735060       10       0.00055544       0.00141788       0.08967370
C       -0.36202809       8.63215430      15.05248928       10      -0.00010949      -0.00059510       0.14235697
C        0.85839756       9.33135755      15.10030798       10      -0.00003493       0.00000459       0.13165261
C        6.91734572       0.23331100      15.11560003       10      -0.00050093       0.00050111       0.14416016
C        8.12896709       0.93292104      15.12253855       10      -0.00178307      -0.00103433       0.06999983
C        5.70344912       2.33048998      15.08926501       10       0.00095122       0.00211927       0.15609723
C        6.91538740       3.03172610      15.10321030       10       0.00251052      -0.00114351       0.09254130
C        4.49230884       4.43048425      15.06466899       10       0.00171524       0.00059198       0.21645868
C        5.70449982       5.13114766      15.06735060       10       0.00208213       0.00075152       0.09146219
C        3.27977461       6.53082151      15.06466899       10       0.00125217      -0.00147804       0.21684417
C        4.49265124       7.23027445      15.06735060       10      -0.00008665       0.00166026       0.09088038
C        2.06650686       8.62976773      15.08926501       10       0.00410328      -0.00087294       0.15362189
C        3.27970473       9.32880891      15.10321030       10       0.00101674       0.00181944       0.09186047
C        9.33979218       0.23225350      15.12092073       10      -0.00086233      -0.00058751       0.10861473
C       10.55060885       0.93287355      15.12253855       10       0.00091419       0.00087491       0.07028518
C        8.12747225       2.33187358      15.12092073       10       0.00196917       0.00026382       0.10966455
C        9.33963097       3.03020467      15.12253855       10       0.00259056       0.00103933       0.07169165
C        6.91671732       4.43193208      15.08926501       10       0.00127863      -0.00001311       0.15273255
C        8.12844325       5.12756273      15.10030798       10       0.00003356       0.00201172       0.13578762
C        5.70720969       6.53205109      15.05274431       10      -0.00196578      -0.00013587       0.10765649
C        6.91592753       7.22986347      15.02041060       10      -0.00378042       0.00134323       0.43537296
C        4.49289860       8.62973015      15.08926501       10       0.00094516       0.00022241       0.15249505
C        5.70109283       9.33127198      15.10030798       10       0.00278944       0.00114428       0.13320433
O       -2.77952645       8.63646329      13.20337830       11       0.00446036      -0.00452744       0.00365754
