130
Lattice="12.12 0.0 0.0 -6.06 10.496227893867395 0.0 0.0 0.0 40.0" Properties=species:S:1:pos:R:3:tags:I:1:forces:R:3 energy=-1200.9979948499158 stress="0.0027809293629314797 -1.8467049257500915e-07 4.0463105842217696e-07 -1.8467049257500915e-07 0.002781214859292339 5.197665357108059e-07 4.0463105842217696e-07 5.197665357108059e-07 0.0029128668969317434" pbc="T T F"
C       -0.00001587      -0.00002649      10.00450206        2       0.00005302       0.00000711       0.00671642
Ti      -0.00000991       1.74930818       8.71308337        0       0.00011786       0.00011306       0.00675497
Ti       1.51558293       0.87494995      11.29961410        0       0.00062054       0.00062683       0.00200035
O       -0.00000117       1.75012793      12.23008024        3       0.00010224       0.00044032      -0.23236329
O        1.51473604       0.87458252       7.77370920        1      -0.00061234      -0.00031769       0.00547169
C       -1.51503435       2.62416309      10.00367359        2      -0.00010755       0.00007968       0.00530122
Ti      -1.51488751       4.37344550       8.71153283        0       0.00003849      -0.00005028       0.00463078
Ti       0.00017999       3.50035394      11.29786911        0       0.00034866       0.00102532       0.00116335
O       -1.51518084       4.37584334      12.23008024        3      -0.00026145       0.00043529      -0.24425020
O        0.00004221       3.49828853       7.77331094        1      -0.00005800      -0.00084859       0.00420263
C       -3.03007132       5.24808097      10.00223341        2      -0.00000997       0.00012917       0.00407003
Ti      -3.02990933       6.99758975       8.71143346        0      -0.00008198       0.00003376       0.00466940
Ti      -1.51419458       6.12349147      11.29726011        0       0.00027218       0.00014114       0.00035204
O       -3.02815987       6.99640269      12.23008024        3       0.00005061      -0.00025703      -0.24331316
O       -1.51495677       6.12280043       7.77294766        1      -0.00029014      -0.00008865       0.00292065
C       -4.54499581       7.87212858      10.00352029        2       0.00004178      -0.00000867       0.00521903
Ti      -4.54508421       9.62156622       8.71291275        0      -0.00004099       0.00017547       0.00672485
Ti      -3.02856427       8.74647476      11.29774328        0       0.00068009      -0.00015247       0.00085604
O       -4.54455845       9.62133006      12.23008024        3       0.00041826      -0.00015785      -0.23546874
O       -3.03036719       8.74713488       7.77323576        1      -0.00075028       0.00047320       0.00412196
C        3.03007899       0.00002982      10.00374062        2       0.00010584      -0.00004212       0.00545309
Ti       3.02994050       1.74934747       8.71208782        0       0.00001425       0.00020562       0.00551855
Ti       4.54586845       0.87433187      11.29707609        0       0.00070012       0.00047634       0.00104465
O        3.03106297       1.74980835      12.23008024        3       0.00071473       0.00042265      -0.24349624
O        4.54459048       0.87457144       7.77284561        1      -0.00055582      -0.00017124       0.00311769
C        1.51506765       2.62420192      10.00382653        2       0.00006693       0.00002338       0.00544796
Ti       1.51490942       4.37343213       8.71164225        0       0.00013964      -0.00005886       0.00441076
Ti       3.03017671       3.49979069      11.29708229        0       0.00047772       0.00070502       0.00141767
O        1.51513111       4.37597262      12.23008024        3       0.00027640       0.00047834      -0.24471852
O        3.02965846       3.49846834       7.77285936        1      -0.00043469      -0.00046324       0.00311694
C        0.00001543       5.24801644      10.00255146        2      -0.00009469       0.00023046       0.00457280
Ti      -0.00000067       6.99750922       8.71155882        0       0.00011801      -0.00004614       0.00389264
Ti       1.51430524       6.12360113      11.29732991        0       0.00023611       0.00012990       0.00048127
O        0.00013598       6.99775811      12.23008024        3       0.00003005       0.00022443      -0.22091776
O        1.51497984       6.12275037       7.77298406        1       0.00016658      -0.00007647       0.00281709
C       -1.51514162       7.87231471      10.00248144        2       0.00001005       0.00009309       0.00463225
Ti      -1.51505278       9.62146052       8.71155575        0      -0.00002860       0.00014089       0.00470516
Ti       0.00014239       8.74634639      11.29729737        0       0.00028449       0.00002686       0.00049972
O       -1.51284450       9.62036189      12.23008024        3       0.00040174       0.00008353      -0.24385255
O       -0.00003102       8.74689328       7.77294755        1      -0.00005014       0.00038309       0.00288345
C        6.05999315       0.00010407      10.00231812        2       0.00013897       0.00002547       0.00407613
Ti       6.06001200       1.74909022       8.71052150        0      -0.00006544       0.00010389       0.00329216
Ti       7.57452234       0.87429234      11.29677503        0      -0.00051255       0.00030187       0.00078943
O        6.06022465       1.74935055      12.23008024        3       0.00012358       0.00029008      -0.24151047
O        7.57532047       0.87453311       7.77273486        1       0.00064768      -0.00001007       0.00297245
C        4.54496109       2.62402963      10.00222657        2       0.00028037       0.00006182       0.00361929
Ti       4.54481518       4.37355239       8.71050029        0      -0.00003373      -0.00006206       0.00323239
Ti       6.05983443       3.49848240      11.29263419        0      -0.00016476       0.00005788      -0.00005646
O        4.54531396       4.37360532      12.23008024        3       0.00036248       0.00001887      -0.24070821
O        6.05992369       3.49867008       7.77208591        1       0.00016373      -0.00004297       0.00160825
C        3.03006169       5.24807589      10.00231514        2       0.00014978       0.00019565       0.00413910
Ti       3.02988775       6.99757839       8.71144889        0       0.00013869      -0.00007508       0.00434877
Ti       4.54442020       6.12260463      11.29657684        0      -0.00015298      -0.00062346       0.00101140
O        3.02819209       6.99675978      12.23008024        3       0.00014513      -0.00008772      -0.24318744
O        4.54497267       6.12313715       7.77267634        1       0.00027161       0.00058442       0.00282470
C        1.51517004       7.87230968      10.00242735        2       0.00002488       0.00022373       0.00447420
Ti       1.51503166       9.62141848       8.71147508        0       0.00004567       0.00007288       0.00452171
Ti       3.02880704       8.74640734      11.29763148        0      -0.00049105      -0.00033474       0.00105241
O        1.51328463       9.62032998      12.23008024        3      -0.00009938       0.00028734      -0.24307758
O        3.03035581       8.74707928       7.77317698        1       0.00084098       0.00060127       0.00389548
C        9.09001972       0.00005388      10.00347536        2       0.00007696       0.00017123       0.00514631
Ti       9.09005772       1.74936431       8.71177292        0      -0.00000920       0.00006382       0.00544323
Ti      10.60463617       0.87477884      11.29910912        0      -0.00020045       0.00056939       0.00221946
O        9.08841829       1.74986895      12.23008024        3      -0.00036355       0.00043636      -0.24492974
O       10.60535551       0.87459216       7.77356001        1       0.00062857      -0.00022323       0.00530194
C        7.57499487       2.62402910      10.00197604        2       0.00003293       0.00009747       0.00353464
Ti       7.57514817       4.37351841       8.71045904        0      -0.00008672      -0.00008180       0.00337038
Ti       9.08981338       3.49956849      11.29689333        0      -0.00027691       0.00057525       0.00101909
O        7.57474284       4.37333590      12.23008024        3      -0.00015504      -0.00001387      -0.23739751
O        9.09035599       3.49853094       7.77271095        1       0.00040582      -0.00039043       0.00308430
C        6.05998150       5.24807287      10.00183589        2       0.00017696      -0.00003510       0.00353480
Ti       6.06001327       6.99752060       8.71160882        0      -0.00011132      -0.00006273       0.00520100
Ti       7.57553382       6.12234667      11.29666548        0       0.00007220      -0.00065202       0.00069082
O        6.05977116       6.99549439      12.23008024        3       0.00013473      -0.00052269      -0.24404383
O        7.57501541       6.12317825       7.77264433        1      -0.00005123       0.00052197       0.00289329
C        4.54505307       7.87215668      10.00339758        2       0.00020393       0.00011303       0.00513089
Ti       4.54507006       9.62157098       8.71267463        0       0.00008169       0.00006050       0.00663620
Ti       6.05996126       8.74639565      11.29883920        0       0.00018093      -0.00054868       0.00164754
O        4.54467196       9.62137510      12.23008024        3      -0.00009879      -0.00006175      -0.23890473
O        6.06005552       8.74723395       7.77348181        1       0.00007812       0.00077532       0.00515385
C        0.04514397       0.06745660      15.52238793       10      -0.00234460       0.00005811       0.12267101
C        1.25731787       0.76732842      15.52238793       10      -0.00764954      -0.00253665       0.06616752
C       -1.16734537       2.16696325      15.52238793       10       0.00276098       0.00221748       0.08105198
C        0.04471615       2.86637926      15.52238793       10       0.00243708      -0.00227708       0.06250878
C       -2.37913428       4.26603143      15.52238793       10      -0.00127879       0.00106321       0.07089204
C       -1.16714230       4.96541501      15.52238793       10      -0.00015799      -0.00083979       0.06844906
C       -3.59069877       6.36504178      15.52238793       10      -0.00488021       0.00285241       0.07152606
C       -2.37902113       7.06484479      15.52238793       10      -0.00214798      -0.00178468       0.06808221
C       -4.80304431       8.46429354      15.52238793       10       0.00427469       0.00078766       0.07616538
C       -3.59126499       9.16422186      15.52238793       10       0.00089229      -0.00028219       0.06459469
C        2.46951560       0.06738653      15.52238793       10      -0.00197732      -0.00094742       0.08179424
C        3.68132159       0.76741001      15.52238793       10      -0.00636722      -0.00024844       0.06961549
C        1.25683162       2.16702370      15.52238793       10       0.00441815       0.00126178       0.08562166
C        2.46898922       2.86639440      15.52238793       10      -0.00021509       0.00018194       0.07010885
C        0.04501189       4.26611374      15.52238793       10      -0.00160387      -0.00014615       0.07218903
C        1.25722832       4.96530497      15.52238793       10      -0.00269777       0.00275624       0.06525067
C       -1.16659328       6.36517664      15.52238793       10      -0.00436588       0.00169764       0.05742863
C        0.04523760       7.06476759      15.52238793       10      -0.00246384       0.00144858       0.08449777
C       -2.37901693       8.46428691      15.52238793       10       0.00296734       0.00060989       0.06907522
C       -1.16734391       9.16430710      15.52238793       10       0.00243534       0.00321713       0.06416688
C        4.89333442       0.06746083      15.52238793       10      -0.00388306      -0.00119027       0.07103184
C        6.10503059       0.76775719      15.52238793       10      -0.00037030      -0.00181309       0.06590645
C        3.68088750       2.16675918      15.52238793       10       0.00363212       0.00043134       0.06130309
C        4.89270872       2.86669079      15.52238793       10       0.00507129      -0.00046992       0.09012301
C        2.46913192       4.26600510      15.52238793       10       0.00023284      -0.00220584       0.07065995
C        3.68128831       4.96556408      15.52238793       10      -0.00047304       0.00197088       0.06946120
C        1.25721078       6.36515486      15.52238793       10      -0.00516733       0.00003233       0.05699456
C        2.46940365       7.06498256      15.52238793       10      -0.00401269      -0.00051851       0.06839470
C        0.04486570       8.46426695      15.52238793       10       0.00015970       0.00139948       0.05725240
C        1.25685591       9.16448467      15.52238793       10       0.00353010       0.00088292       0.06754895
C        7.31690889       0.06761366      15.52238793       10      -0.00257243      -0.00345943       0.07132478
C        8.52896937       0.76755466      15.52238793       10      -0.00314855      -0.00104550       0.06886698
C        6.10470223       2.16701882      15.52238793       10       0.00226668      -0.00163473       0.07100067
C        7.31665580       2.86670620      15.52238793       10       0.00422026      -0.00210063       0.09667961
C        4.89300414       4.26610048      15.52238793       10       0.00258515      -0.00276827       0.07406776
C        6.10498182       4.96578042      15.52238793       10       0.00150380      -0.00012367       0.10168469
C        3.68106762       6.36518231      15.52238793       10       0.00013822      -0.00056810       0.07227807
C        4.89331539       7.06482236      15.52238793       10      -0.00494103      -0.00137013       0.06853162
C        2.46854656       8.46445138      15.52238793       10       0.00601145      -0.00021811       0.06577415
C        3.68088434       9.16432972      15.52238793       10       0.00139855       0.00057404       0.06592342
C        9.74079804       0.06748878      15.52238793       10      -0.00074646      -0.00015661       0.07588291
C       10.95314386       0.76731871      15.52238793       10      -0.00459170      -0.00122092       0.06733833
C        8.52857843       2.16686813      15.52238793       10       0.00208735       0.00149112       0.06414528
C        9.74052941       2.86650945      15.52238793       10       0.00441799      -0.00302066       0.07118608
C        7.31680994       4.26601532      15.52238793       10      -0.00024373       0.00083814       0.07680587
C        8.52864594       4.96551772      15.52238793       10       0.00111802      -0.00131674       0.07499100
C        6.10522105       6.36513173      15.52238793       10      -0.00276086       0.00228040       0.06707649
C        7.31713970       7.06483725      15.52238793       10      -0.00281529      -0.00241429       0.06974953
C        4.89254453       8.46428221      15.52238793       10       0.00751680       0.00209610       0.07498915
C        6.10480990       9.16422721      15.52238793       10       0.00215728      -0.00041670       0.06831403
