131
Lattice="12.12 0.0 0.0 -6.06 10.496227893867395 0.0 0.0 0.0 40.0" Properties=species:S:1:pos:R:3:tags:I:1:forces:R:3 stress="0.0029317083388340397 -1.3516247272774521e-06 -3.095907162515483e-06 -1.3516247272774521e-06 0.002930011015445939 2.208277410625649e-06 -3.095907162515483e-06 2.208277410625649e-06 0.00243756018081742" energy=-1205.9035102134278 pbc="T T F"
C       -0.00100502       0.00046629      10.00566385        2      -0.00036613       0.00031733      -0.00172181
Ti       0.00026666       1.74909741       8.71547731        0      -0.00002895       0.00065749       0.00008620
Ti       1.51489621       0.87647805      11.30175826        0      -0.00036889      -0.00077497       0.00058009
O       -0.00283801       1.74926703      12.23008024        3       0.00033647       0.00034023       0.11680278
O        1.51687509       0.87154523       7.78189983        1      -0.00080857       0.00170991      -0.00114545
C       -1.51516393       2.62397778      10.00404214        2      -0.00027405       0.00045171      -0.00003797
Ti      -1.51519127       4.37480262       8.71891268        0      -0.00007611       0.00038808       0.00003530
Ti       0.00051498       3.49867169      11.29901819        0      -0.00020921       0.00052573      -0.00073168
O       -1.51439740       4.36718062      12.23008024        3       0.00006360       0.00051361       0.11479441
O       -0.00124362       3.49949952       7.77788844        1       0.00012431       0.00013573       0.00055649
C       -3.03036000       5.24673737      10.01016067        2      -0.00031627       0.00045019      -0.00243894
Ti      -3.03047769       6.99870920       8.73178214        0      -0.00031776       0.00006578      -0.00536859
Ti      -1.51621960       6.12456984      11.31547137        0      -0.00136166       0.00150639       0.00118988
O       -3.03703227       6.98230381      12.23008024        3      -0.00105572      -0.00092529      -0.03937212
O       -1.51671252       6.12702316       7.78703452        1       0.00036842      -0.00083128      -0.00236079
C       -4.54410490       7.87317189      10.01854666        2       0.00088801       0.00086812      -0.00363850
Ti      -4.54369401       9.62077441       8.72659476        0      -0.00052584       0.00037081      -0.00427582
Ti      -3.02936554       8.74683431      11.34557585        0      -0.00064355       0.00043167      -0.00530512
O       -4.55773770       9.62877334      12.23008024        3      -0.00107065       0.00092459       0.09970945
O       -3.02825922       8.74600744       7.79151211        1      -0.00078050       0.00038760      -0.00653574
C        3.02953414      -0.00121078      10.01877467        2      -0.00020616      -0.00101262      -0.00386022
Ti       3.03013125       1.75028907       8.71802580        0      -0.00013587       0.00003616      -0.00021241
Ti       4.54445186       0.87673303      11.30523231        0      -0.00041032      -0.00123118       0.00059794
O        3.02762832       1.75557305      12.23008024        3      -0.00035786      -0.00020147       0.09110222
O        4.54363805       0.87015030       7.78416693        1      -0.00013958       0.00181286      -0.00177567
C        1.51440527       2.62498309      10.00439706        2       0.00047753       0.00033551      -0.00048743
Ti       1.51458392       4.37331301       8.71561278        0      -0.00020597       0.00054828      -0.00023348
Ti       3.02959439       3.50000578      11.29837749        0       0.00009503      -0.00010349      -0.00039976
O        1.51450459       4.37291537      12.23008024        3      -0.00037985       0.00013881       0.08213508
O        3.02925684       3.49662549       7.77747670        1      -0.00036053       0.00110890       0.00020230
C        0.00015140       5.24754279      10.00799271        2      -0.00021313       0.00085690      -0.00106483
Ti       0.00063782       6.99729432       8.72402484        0      -0.00053923       0.00039597      -0.00111029
Ti       1.51678183       6.12173904      11.29856365        0      -0.00000977       0.00017662      -0.00034506
O        0.00712894       6.99374869      12.23008024        3      -0.00031532       0.00027086       0.08308542
O        1.51109535       6.12506706       7.77964615        1       0.00053842      -0.00025395       0.00017511
C       -1.51669162       7.87335708      10.02649050        2      -0.00119373       0.00082010      -0.00409552
Ti      -1.51612245       9.62140947       8.73222597        0      -0.00025223       0.00035642      -0.00553161
Ti      -0.00241298       8.74771400      11.31687860        0      -0.00204944       0.00046844       0.00101693
O       -1.50428975       9.63636562      12.23008024        3       0.00058237       0.00165480      -0.08344230
O       -0.00455200       8.74632780       7.78710865        1       0.00098377       0.00014313      -0.00250579
C        6.06131362       0.00123108      10.01002899        2      -0.00054426       0.00010595      -0.00260721
Ti       6.05951003       1.74919136       8.71717849        0      -0.00075612       0.00037845       0.00044644
Ti       7.57546912       0.87607965      11.29864227        0      -0.00040891       0.00020942      -0.00028092
O        6.06325535       1.75274892      12.23008024        3      -0.00096502       0.00042319       0.09889791
O        7.57378651       0.87383360       7.77791865        1       0.00032304       0.00073823       0.00034232
C        4.54479743       2.62618508      10.00460512        2      -0.00076754       0.00038103      -0.00077458
Ti       4.54511409       4.37338066       8.71549004        0      -0.00048574       0.00021350      -0.00150608
Ti       6.05857634       3.49924393      11.29953737        0      -0.00068687       0.00042227      -0.00092212
O        4.54413320       4.37355097      12.23008024        3      -0.00024016       0.00001495       0.07673022
O        6.06096741       3.49823564       7.77765543        1      -0.00046627       0.00034949       0.00033560
C        3.03002635       5.24811058      10.00307099        2      -0.00017367       0.00020966       0.00054965
Ti       3.02999462       6.99792218       8.71574854        0      -0.00069083       0.00000783      -0.00041191
Ti       4.54366850       6.12213173      11.29875608        0       0.00013205       0.00038267      -0.00044887
O        3.03047912       6.99803716      12.23008024        3      -0.00043998       0.00048326       0.07812783
O        4.54645136       6.12444765       7.77743069        1      -0.00113199      -0.00018719       0.00016812
C        1.51562968       7.87240717      10.00803976        2      -0.00087244      -0.00009674      -0.00111269
Ti       1.51376711       9.62106526       8.71903113        0      -0.00043259      -0.00006105       0.00008205
Ti       3.03026610       8.74637176      11.29900387        0      -0.00062751       0.00022180      -0.00057621
O        1.52157194       9.62462406      12.23008024        3      -0.00037037      -0.00009568       0.11230338
O        3.02871489       8.74753267       7.77782558        1       0.00005644      -0.00008844       0.00064147
C        9.09001543       0.00024469      10.00383196        2      -0.00051389       0.00015652      -0.00001795
Ti       9.08979136       1.74951074       8.71409625        0      -0.00041886       0.00027958      -0.00066630
Ti      10.60448926       0.87480544      11.29868404        0      -0.00051142       0.00048283      -0.00054092
O        9.09070636       1.74900689      12.23008024        3      -0.00073559       0.00042751       0.09695882
O       10.60532835       0.87452248       7.77629211        1      -0.00064771       0.00040206       0.00040208
C        7.57510839       2.62404449      10.00415293        2      -0.00078676       0.00048011       0.00000927
Ti       7.57491884       4.37390147       8.71731515        0      -0.00071895       0.00048285       0.00030124
Ti       9.08922323       3.49802825      11.29919084        0      -0.00030470       0.00026553      -0.00038142
O        7.57335814       4.36855969      12.23008024        3      -0.00086526       0.00052435       0.09617275
O        9.09017748       3.50034313       7.77801527        1      -0.00047186      -0.00051176       0.00029225
C        6.05811036       5.24714335      10.00464355        2      -0.00073216       0.00057364      -0.00062536
Ti       6.05927382       6.99694290       8.71795426        0      -0.00007288       0.00015246      -0.00032576
Ti       7.57274764       6.12196010      11.30442320        0       0.00072369       0.00100937       0.00071683
O        6.05368216       6.99610771      12.23008024        3       0.00001518       0.00055111       0.08899937
O        7.57834335       6.12625338       7.78405555        1      -0.00169115      -0.00069403      -0.00160540
C        4.54395288       7.87203152      10.00423240        2      -0.00005261      -0.00045044      -0.00033763
Ti       4.54534029       9.62145523       8.71527381        0      -0.00051925      -0.00025916       0.00023747
Ti       6.05815748       8.74589334      11.30093405        0       0.00048533       0.00096162       0.00058433
O        4.54302391       9.62355472      12.23008024        3      -0.00003305      -0.00020562       0.10372543
O        6.06375603       8.74678810       7.78173783        1      -0.00190315      -0.00017807      -0.00095851
C        0.04194401       0.06953583      16.59252311       10       0.00871020       0.00092267       0.00773573
C        1.25275519       0.76883108      16.57723106       10       0.00004269      -0.00171243       0.01118776
C       -1.16811350       2.16784925      16.59784381       10      -0.00156467       0.00232244      -0.01982227
C        0.04396246       2.86748643      16.58013338       10      -0.00041751       0.00092303      -0.00804918
C       -2.37993246       4.26508562      16.59252311       10      -0.00402986       0.00202741      -0.00052584
C       -1.16921526       4.96378278      16.57723106       10       0.00045592       0.00048221       0.02068512
C       -3.58705757       6.36784819      16.52941236       10      -0.00264773       0.00118048      -0.00993643
C       -2.38046175       7.05045744      16.48759014       10       0.00223424      -0.00226940      -0.44962467
C       -4.80007744       8.46906073      16.52941236       10       0.00453303      -0.00039167      -0.01899880
C       -3.60574103       9.17314993      16.48759014       10      -0.00143600      -0.00176310      -0.46832388
C        2.46680498       0.06327223      16.52941236       10       0.00421450      -0.00327640      -0.01892553
C        3.67979522       0.76676595      16.49733368       10       0.00516804       0.00251165       0.17695483
C        1.25559901       2.16718690      16.56618809       10       0.00144781      -0.00085943      -0.02499942
C        2.46758921       2.86635896      16.54427368       10       0.00058654       0.00033790      -0.04044023
C        0.04313797       4.26718884      16.56618809       10       0.00133341      -0.00122375      -0.02447377
C        1.25474563       4.96693352      16.54427368       10      -0.00127103      -0.00016651      -0.03684152
C       -1.17342617       6.36783874      16.52941236       10       0.00296754       0.00131083      -0.00928866
C        0.04256663       7.06651182      16.49733368       10       0.00086062      -0.00221859       0.16776206
C       -2.38042164       8.46527249      16.03478448       10       0.00266772      -0.00366291       0.46931585
C       -1.15514947       9.17294324      16.48759014       10       0.00178873       0.00308789      -0.46042632
C        4.89283810       0.06312784      16.52941236       10       0.00076253      -0.00479552      -0.00836238
C        6.10680565       0.76842977      16.57723106       10       0.00160146       0.00225669       0.01489156
C        3.67996268       2.16399384      16.52966739       10      -0.00183681       0.00113409      -0.09483499
C        4.89246446       2.86623244      16.54427368       10      -0.00095089       0.00020963      -0.02707950
C        2.46711039       4.26661246      16.54159207       10      -0.00167136      -0.00034942      -0.00213659
C        3.67997039       4.96670315      16.53659130       10      -0.00022985       0.00108467      -0.04078291
C        1.25264663       6.36806169      16.52966739       10       0.00126564      -0.00042317      -0.08285243
C        2.46706283       7.06681367      16.54427368       10       0.00194551       0.00078275      -0.03802728
C        0.03966218       8.46893825      16.52941236       10      -0.00032650      -0.00302151      -0.00467480
C        1.25772688       9.16735238      16.57723106       10       0.00006954       0.00473899       0.02167730
C        7.31732412       0.06902672      16.59252311       10      -0.00119486      -0.00350596       0.00117222
C        8.52875723       0.76861192      16.59946163       10       0.00002677       0.00062511      -0.01274309
C        6.10441105       2.16671850      16.56618809       10      -0.00095470       0.00324433      -0.02736406
C        7.31600061       2.86732004      16.58013338       10      -0.00281049      -0.00172369       0.01144649
C        4.89272718       4.26646033      16.54159207       10       0.00001194       0.00132517      -0.00672037
C        6.10519009       4.96690992      16.54427368       10      -0.00190949       0.00059828      -0.02454126
C        3.67975901       6.36711862      16.54159207       10      -0.00080131      -0.00036556      -0.00061910
C        4.89256780       7.06687659      16.54427368       10       0.00002383       0.00058058      -0.03607218
C        2.46736931       8.46599823      16.56618809       10      -0.00302234      -0.00242019      -0.02459995
C        3.67993442       9.16516796      16.58013338       10       0.00007281       0.00262793      -0.01160210
C        9.73958435       0.06831805      16.59784381       10       0.00370245      -0.00079448      -0.01981850
C       10.95054551       0.76893943      16.59946163       10      -0.00042179      -0.00287098      -0.02286213
C        8.52790354       2.16749099      16.59784381       10      -0.00295141       0.00264081      -0.03016820
C        9.73978095       2.86616778      16.59946163       10       0.00354951      -0.00196101      -0.01748466
C        7.31688438       4.26690497      16.56618809       10      -0.00161617       0.00000488      -0.03167287
C        8.52908318       4.96392185      16.57723106       10       0.00375773      -0.00149898       0.02707557
C        6.10704659       6.36818860      16.52966739       10       0.00010265      -0.00293179      -0.09263149
C        7.31714439       7.06674324      16.49733368       10       0.00173161      -0.00362656       0.17587290
C        4.89217927       8.46614794      16.56618809       10       0.00290069      -0.00108547      -0.02574961
C        6.10192892       9.16767313      16.57723106       10      -0.00320441      -0.00372501       0.00946070
O       -2.37687905       8.46052678      14.68634432       11       0.00655222      -0.00661439       0.00184119
